MODEL 1
REMARK VINA RESULT:   -10.889      0.000      0.000
REMARK INTER + INTRA:         -11.589
REMARK INTER:                 -11.526
REMARK INTRA:                  -0.063
REMARK UNBOUND:                -0.063
REMARK SMILES Cc1nnc2n1-c1ccc(Cl)cc1C(c1ccccc1Cl)=NC2
REMARK SMILES IDX 1 1 2 2 3 3 4 4 5 5 6 6 7 7 8 8 9 9 10 10 11 11 12 12 13 13
REMARK SMILES IDX 14 14 22 15 23 16 15 17 16 18 20 19 17 20 19 21 18 22 21 23
REMARK H PARENT
ROOT
ATOM      1  C   UNL     1     115.474 160.686 113.092  1.00  0.00     0.090 C 
ATOM      2  C   UNL     1     116.674 160.817 112.232  1.00  0.00     0.134 A 
ATOM      3  N   UNL     1     117.095 161.958 111.723  1.00  0.00    -0.135 NA
ATOM      4  N   UNL     1     118.123 161.692 110.866  1.00  0.00    -0.133 NA
ATOM      5  C   UNL     1     118.325 160.392 110.864  1.00  0.00     0.159 A 
ATOM      6  N   UNL     1     117.462 159.781 111.747  1.00  0.00    -0.281 N 
ATOM      7  C   UNL     1     117.470 158.405 112.095  1.00  0.00     0.058 A 
ATOM      8  C   UNL     1     117.154 158.033 113.414  1.00  0.00     0.029 A 
ATOM      9  C   UNL     1     117.201 156.694 113.807  1.00  0.00     0.023 A 
ATOM     10  C   UNL     1     117.574 155.718 112.892  1.00  0.00     0.041 A 
ATOM     11  Cl  UNL     1     117.641 154.070 113.379  1.00  0.00    -0.084 Cl
ATOM     12  C   UNL     1     117.894 156.066 111.582  1.00  0.00     0.033 A 
ATOM     13  C   UNL     1     117.841 157.409 111.166  1.00  0.00     0.026 A 
ATOM     14  C   UNL     1     118.094 157.684 109.714  1.00  0.00     0.076 C 
ATOM     15  N   UNL     1     118.753 158.678 109.230  1.00  0.00    -0.276 NA
ATOM     16  C   UNL     1     119.366 159.651 110.123  1.00  0.00     0.220 C 
ENDROOT
BRANCH  14  17
ATOM     17  C   UNL     1     117.494 156.751 108.725  1.00  0.00     0.019 A 
ATOM     18  C   UNL     1     116.150 156.393 108.895  1.00  0.00     0.012 A 
ATOM     19  C   UNL     1     118.226 156.259 107.638  1.00  0.00     0.050 A 
ATOM     20  C   UNL     1     115.542 155.532 107.981  1.00  0.00     0.001 A 
ATOM     21  C   UNL     1     117.608 155.396 106.729  1.00  0.00     0.021 A 
ATOM     22  C   UNL     1     116.270 155.034 106.900  1.00  0.00     0.002 A 
ATOM     23  Cl  UNL     1     119.896 156.625 107.405  1.00  0.00    -0.084 Cl
ENDBRANCH  14  17
TORSDOF 1
ENDMDL
MODEL 2
REMARK VINA RESULT:   -10.118      0.861      1.048
REMARK INTER + INTRA:         -10.772
REMARK INTER:                 -10.383
REMARK INTRA:                  -0.390
REMARK UNBOUND:                -0.063
REMARK SMILES Cc1nnc2n1-c1ccc(Cl)cc1C(c1ccccc1Cl)=NC2
REMARK SMILES IDX 1 1 2 2 3 3 4 4 5 5 6 6 7 7 8 8 9 9 10 10 11 11 12 12 13 13
REMARK SMILES IDX 14 14 22 15 23 16 15 17 16 18 20 19 17 20 19 21 18 22 21 23
REMARK H PARENT
ROOT
ATOM      1  C   UNL     1     114.580 159.587 114.154  1.00  0.00     0.090 C 
ATOM      2  C   UNL     1     115.672 160.102 113.294  1.00  0.00     0.134 A 
ATOM      3  N   UNL     1     115.810 161.369 112.959  1.00  0.00    -0.135 NA
ATOM      4  N   UNL     1     116.818 161.463 112.044  1.00  0.00    -0.133 NA
ATOM      5  C   UNL     1     117.289 160.254 111.832  1.00  0.00     0.159 A 
ATOM      6  N   UNL     1     116.629 159.346 112.631  1.00  0.00    -0.281 N 
ATOM      7  C   UNL     1     116.949 157.968 112.757  1.00  0.00     0.058 A 
ATOM      8  C   UNL     1     116.798 157.345 114.009  1.00  0.00     0.029 A 
ATOM      9  C   UNL     1     117.150 156.006 114.185  1.00  0.00     0.023 A 
ATOM     10  C   UNL     1     117.664 155.281 113.118  1.00  0.00     0.041 A 
ATOM     11  Cl  UNL     1     118.107 153.633 113.338  1.00  0.00    -0.084 Cl
ATOM     12  C   UNL     1     117.824 155.880 111.871  1.00  0.00     0.033 A 
ATOM     13  C   UNL     1     117.464 157.226 111.673  1.00  0.00     0.026 A 
ATOM     14  C   UNL     1     117.565 157.760 110.277  1.00  0.00     0.076 C 
ATOM     15  N   UNL     1     117.969 158.935 109.938  1.00  0.00    -0.276 NA
ATOM     16  C   UNL     1     118.417 159.875 110.956  1.00  0.00     0.220 C 
ENDROOT
BRANCH  14  17
ATOM     17  C   UNL     1     117.117 156.876 109.169  1.00  0.00     0.019 A 
ATOM     18  C   UNL     1     115.791 156.424 109.189  1.00  0.00     0.012 A 
ATOM     19  C   UNL     1     117.971 156.520 108.120  1.00  0.00     0.050 A 
ATOM     20  C   UNL     1     115.324 155.604 108.162  1.00  0.00     0.001 A 
ATOM     21  C   UNL     1     117.493 155.697 107.095  1.00  0.00     0.021 A 
ATOM     22  C   UNL     1     116.173 155.241 107.117  1.00  0.00     0.002 A 
ATOM     23  Cl  UNL     1     119.627 157.005 108.067  1.00  0.00    -0.084 Cl
ENDBRANCH  14  17
TORSDOF 1
ENDMDL
MODEL 3
REMARK VINA RESULT:    -8.747      2.517      6.403
REMARK INTER + INTRA:          -9.322
REMARK INTER:                 -10.645
REMARK INTRA:                   1.323
REMARK UNBOUND:                -0.063
REMARK SMILES Cc1nnc2n1-c1ccc(Cl)cc1C(c1ccccc1Cl)=NC2
REMARK SMILES IDX 1 1 2 2 3 3 4 4 5 5 6 6 7 7 8 8 9 9 10 10 11 11 12 12 13 13
REMARK SMILES IDX 14 14 22 15 23 16 15 17 16 18 20 19 17 20 19 21 18 22 21 23
REMARK H PARENT
ROOT
ATOM      1  C   UNL     1     117.598 156.509 106.383  1.00  0.00     0.090 C 
ATOM      2  C   UNL     1     117.607 156.200 107.832  1.00  0.00     0.134 A 
ATOM      3  N   UNL     1     116.869 155.261 108.390  1.00  0.00    -0.135 NA
ATOM      4  N   UNL     1     117.008 155.353 109.745  1.00  0.00    -0.133 NA
ATOM      5  C   UNL     1     117.834 156.343 110.001  1.00  0.00     0.159 A 
ATOM      6  N   UNL     1     118.285 156.897 108.823  1.00  0.00    -0.281 N 
ATOM      7  C   UNL     1     119.276 157.907 108.709  1.00  0.00     0.058 A 
ATOM      8  C   UNL     1     120.164 157.872 107.618  1.00  0.00     0.029 A 
ATOM      9  C   UNL     1     121.183 158.818 107.499  1.00  0.00     0.023 A 
ATOM     10  C   UNL     1     121.333 159.799 108.470  1.00  0.00     0.041 A 
ATOM     11  Cl  UNL     1     122.596 160.958 108.328  1.00  0.00    -0.084 Cl
ATOM     12  C   UNL     1     120.467 159.849 109.560  1.00  0.00     0.033 A 
ATOM     13  C   UNL     1     119.427 158.911 109.690  1.00  0.00     0.026 A 
ATOM     14  C   UNL     1     118.474 159.102 110.832  1.00  0.00     0.076 C 
ATOM     15  N   UNL     1     117.960 158.173 111.559  1.00  0.00    -0.276 NA
ATOM     16  C   UNL     1     118.319 156.781 111.327  1.00  0.00     0.220 C 
ENDROOT
BRANCH  14  17
ATOM     17  C   UNL     1     118.038 160.490 111.136  1.00  0.00     0.019 A 
ATOM     18  C   UNL     1     118.686 161.540 110.472  1.00  0.00     0.012 A 
ATOM     19  C   UNL     1     116.998 160.755 112.033  1.00  0.00     0.050 A 
ATOM     20  C   UNL     1     118.299 162.858 110.715  1.00  0.00     0.001 A 
ATOM     21  C   UNL     1     116.617 162.079 112.271  1.00  0.00     0.021 A 
ATOM     22  C   UNL     1     117.266 163.127 111.614  1.00  0.00     0.002 A 
ATOM     23  Cl  UNL     1     116.196 159.508 112.917  1.00  0.00    -0.084 Cl
ENDBRANCH  14  17
TORSDOF 1
ENDMDL
MODEL 4
REMARK VINA RESULT:    -8.723      2.262      5.223
REMARK INTER + INTRA:          -9.296
REMARK INTER:                  -9.078
REMARK INTRA:                  -0.218
REMARK UNBOUND:                -0.063
REMARK SMILES Cc1nnc2n1-c1ccc(Cl)cc1C(c1ccccc1Cl)=NC2
REMARK SMILES IDX 1 1 2 2 3 3 4 4 5 5 6 6 7 7 8 8 9 9 10 10 11 11 12 12 13 13
REMARK SMILES IDX 14 14 22 15 23 16 15 17 16 18 20 19 17 20 19 21 18 22 21 23
REMARK H PARENT
ROOT
ATOM      1  C   UNL     1     120.634 157.094 107.124  1.00  0.00     0.090 C 
ATOM      2  C   UNL     1     120.290 158.186 108.065  1.00  0.00     0.134 A 
ATOM      3  N   UNL     1     121.097 159.184 108.361  1.00  0.00    -0.135 NA
ATOM      4  N   UNL     1     120.529 159.913 109.366  1.00  0.00    -0.133 NA
ATOM      5  C   UNL     1     119.377 159.356 109.669  1.00  0.00     0.159 A 
ATOM      6  N   UNL     1     119.146 158.275 108.847  1.00  0.00    -0.281 N 
ATOM      7  C   UNL     1     117.953 157.505 108.806  1.00  0.00     0.058 A 
ATOM      8  C   UNL     1     117.510 156.999 107.571  1.00  0.00     0.029 A 
ATOM      9  C   UNL     1     116.316 156.281 107.483  1.00  0.00     0.023 A 
ATOM     10  C   UNL     1     115.550 156.071 108.622  1.00  0.00     0.041 A 
ATOM     11  Cl  UNL     1     114.074 155.195 108.511  1.00  0.00    -0.084 Cl
ATOM     12  C   UNL     1     115.970 156.567 109.854  1.00  0.00     0.033 A 
ATOM     13  C   UNL     1     117.176 157.283 109.963  1.00  0.00     0.026 A 
ATOM     14  C   UNL     1     117.608 157.686 111.341  1.00  0.00     0.076 C 
ATOM     15  N   UNL     1     118.162 158.800 111.671  1.00  0.00    -0.276 NA
ATOM     16  C   UNL     1     118.392 159.827 110.665  1.00  0.00     0.220 C 
ENDROOT
BRANCH  14  17
ATOM     17  C   UNL     1     117.426 156.694 112.434  1.00  0.00     0.019 A 
ATOM     18  C   UNL     1     117.939 155.405 112.240  1.00  0.00     0.012 A 
ATOM     19  C   UNL     1     116.790 157.030 113.634  1.00  0.00     0.050 A 
ATOM     20  C   UNL     1     117.805 154.448 113.245  1.00  0.00     0.001 A 
ATOM     21  C   UNL     1     116.660 156.064 114.635  1.00  0.00     0.021 A 
ATOM     22  C   UNL     1     117.165 154.776 114.441  1.00  0.00     0.002 A 
ATOM     23  Cl  UNL     1     116.095 158.586 113.911  1.00  0.00    -0.084 Cl
ENDBRANCH  14  17
TORSDOF 1
ENDMDL
MODEL 5
REMARK VINA RESULT:    -7.836      4.442      7.343
REMARK INTER + INTRA:          -8.357
REMARK INTER:                  -7.746
REMARK INTRA:                  -0.611
REMARK UNBOUND:                -0.063
REMARK SMILES Cc1nnc2n1-c1ccc(Cl)cc1C(c1ccccc1Cl)=NC2
REMARK SMILES IDX 1 1 2 2 3 3 4 4 5 5 6 6 7 7 8 8 9 9 10 10 11 11 12 12 13 13
REMARK SMILES IDX 14 14 22 15 23 16 15 17 16 18 20 19 17 20 19 21 18 22 21 23
REMARK H PARENT
ROOT
ATOM      1  C   UNL     1     115.959 153.903 117.012  1.00  0.00     0.090 C 
ATOM      2  C   UNL     1     116.339 155.196 117.628  1.00  0.00     0.134 A 
ATOM      3  N   UNL     1     116.378 155.410 118.928  1.00  0.00    -0.135 NA
ATOM      4  N   UNL     1     116.613 156.738 119.138  1.00  0.00    -0.133 NA
ATOM      5  C   UNL     1     116.720 157.322 117.964  1.00  0.00     0.159 A 
ATOM      6  N   UNL     1     116.597 156.386 116.960  1.00  0.00    -0.281 N 
ATOM      7  C   UNL     1     116.776 156.631 115.573  1.00  0.00     0.058 A 
ATOM      8  C   UNL     1     117.360 155.633 114.774  1.00  0.00     0.029 A 
ATOM      9  C   UNL     1     117.598 155.856 113.417  1.00  0.00     0.023 A 
ATOM     10  C   UNL     1     117.266 157.079 112.849  1.00  0.00     0.041 A 
ATOM     11  Cl  UNL     1     117.569 157.356 111.179  1.00  0.00    -0.084 Cl
ATOM     12  C   UNL     1     116.689 158.082 113.624  1.00  0.00     0.033 A 
ATOM     13  C   UNL     1     116.432 157.870 114.991  1.00  0.00     0.026 A 
ATOM     14  C   UNL     1     115.711 158.959 115.725  1.00  0.00     0.076 C 
ATOM     15  N   UNL     1     115.945 159.351 116.929  1.00  0.00    -0.276 NA
ATOM     16  C   UNL     1     117.022 158.743 117.698  1.00  0.00     0.220 C 
ENDROOT
BRANCH  14  17
ATOM     17  C   UNL     1     114.584 159.629 115.025  1.00  0.00     0.019 A 
ATOM     18  C   UNL     1     114.833 160.869 114.422  1.00  0.00     0.012 A 
ATOM     19  C   UNL     1     113.317 159.041 114.938  1.00  0.00     0.050 A 
ATOM     20  C   UNL     1     113.808 161.526 113.741  1.00  0.00     0.001 A 
ATOM     21  C   UNL     1     112.296 159.708 114.254  1.00  0.00     0.021 A 
ATOM     22  C   UNL     1     112.542 160.947 113.658  1.00  0.00     0.002 A 
ATOM     23  Cl  UNL     1     112.938 157.541 115.702  1.00  0.00    -0.084 Cl
ENDBRANCH  14  17
TORSDOF 1
ENDMDL
MODEL 6
REMARK VINA RESULT:    -7.463      4.453      7.260
REMARK INTER + INTRA:          -7.962
REMARK INTER:                  -7.424
REMARK INTRA:                  -0.538
REMARK UNBOUND:                -0.063
REMARK SMILES Cc1nnc2n1-c1ccc(Cl)cc1C(c1ccccc1Cl)=NC2
REMARK SMILES IDX 1 1 2 2 3 3 4 4 5 5 6 6 7 7 8 8 9 9 10 10 11 11 12 12 13 13
REMARK SMILES IDX 14 14 22 15 23 16 15 17 16 18 20 19 17 20 19 21 18 22 21 23
REMARK H PARENT
ROOT
ATOM      1  C   UNL     1     116.467 153.992 116.208  1.00  0.00     0.090 C 
ATOM      2  C   UNL     1     116.591 155.221 117.027  1.00  0.00     0.134 A 
ATOM      3  N   UNL     1     116.554 155.234 118.345  1.00  0.00    -0.135 NA
ATOM      4  N   UNL     1     116.541 156.534 118.760  1.00  0.00    -0.133 NA
ATOM      5  C   UNL     1     116.576 157.302 117.693  1.00  0.00     0.159 A 
ATOM      6  N   UNL     1     116.652 156.526 116.557  1.00  0.00    -0.281 N 
ATOM      7  C   UNL     1     116.824 157.010 115.234  1.00  0.00     0.058 A 
ATOM      8  C   UNL     1     117.600 156.263 114.330  1.00  0.00     0.029 A 
ATOM      9  C   UNL     1     117.834 156.731 113.036  1.00  0.00     0.023 A 
ATOM     10  C   UNL     1     117.304 157.951 112.636  1.00  0.00     0.041 A 
ATOM     11  Cl  UNL     1     117.601 158.532 111.045  1.00  0.00    -0.084 Cl
ATOM     12  C   UNL     1     116.535 158.707 113.517  1.00  0.00     0.033 A 
ATOM     13  C   UNL     1     116.281 158.246 114.822  1.00  0.00     0.026 A 
ATOM     14  C   UNL     1     115.355 159.067 115.667  1.00  0.00     0.076 C 
ATOM     15  N   UNL     1     115.480 159.302 116.926  1.00  0.00    -0.276 NA
ATOM     16  C   UNL     1     116.626 158.778 117.657  1.00  0.00     0.220 C 
ENDROOT
BRANCH  14  17
ATOM     17  C   UNL     1     114.147 159.633 115.011  1.00  0.00     0.019 A 
ATOM     18  C   UNL     1     112.995 158.837 114.964  1.00  0.00     0.012 A 
ATOM     19  C   UNL     1     114.137 160.926 114.477  1.00  0.00     0.050 A 
ATOM     20  C   UNL     1     111.834 159.334 114.371  1.00  0.00     0.001 A 
ATOM     21  C   UNL     1     112.969 161.415 113.884  1.00  0.00     0.021 A 
ATOM     22  C   UNL     1     111.821 160.621 113.831  1.00  0.00     0.002 A 
ATOM     23  Cl  UNL     1     115.539 161.933 114.462  1.00  0.00    -0.084 Cl
ENDBRANCH  14  17
TORSDOF 1
ENDMDL
MODEL 7
REMARK VINA RESULT:    -7.310      3.695      6.602
REMARK INTER + INTRA:          -7.801
REMARK INTER:                  -7.187
REMARK INTRA:                  -0.614
REMARK UNBOUND:                -0.063
REMARK SMILES Cc1nnc2n1-c1ccc(Cl)cc1C(c1ccccc1Cl)=NC2
REMARK SMILES IDX 1 1 2 2 3 3 4 4 5 5 6 6 7 7 8 8 9 9 10 10 11 11 12 12 13 13
REMARK SMILES IDX 14 14 22 15 23 16 15 17 16 18 20 19 17 20 19 21 18 22 21 23
REMARK H PARENT
ROOT
ATOM      1  C   UNL     1     116.636 163.604 113.448  1.00  0.00     0.090 C 
ATOM      2  C   UNL     1     115.320 162.970 113.699  1.00  0.00     0.134 A 
ATOM      3  N   UNL     1     114.246 163.630 114.085  1.00  0.00    -0.135 NA
ATOM      4  N   UNL     1     113.265 162.725 114.368  1.00  0.00    -0.133 NA
ATOM      5  C   UNL     1     113.746 161.522 114.147  1.00  0.00     0.159 A 
ATOM      6  N   UNL     1     115.039 161.611 113.678  1.00  0.00    -0.281 N 
ATOM      7  C   UNL     1     115.831 160.525 113.222  1.00  0.00     0.058 A 
ATOM      8  C   UNL     1     116.715 160.728 112.148  1.00  0.00     0.029 A 
ATOM      9  C   UNL     1     117.473 159.672 111.639  1.00  0.00     0.023 A 
ATOM     10  C   UNL     1     117.348 158.404 112.190  1.00  0.00     0.041 A 
ATOM     11  Cl  UNL     1     118.276 157.101 111.557  1.00  0.00    -0.084 Cl
ATOM     12  C   UNL     1     116.476 158.180 113.253  1.00  0.00     0.033 A 
ATOM     13  C   UNL     1     115.712 159.235 113.785  1.00  0.00     0.026 A 
ATOM     14  C   UNL     1     114.883 158.933 114.996  1.00  0.00     0.076 C 
ATOM     15  N   UNL     1     113.699 159.378 115.239  1.00  0.00    -0.276 NA
ATOM     16  C   UNL     1     113.029 160.236 114.272  1.00  0.00     0.220 C 
ENDROOT
BRANCH  14  17
ATOM     17  C   UNL     1     115.490 158.075 116.047  1.00  0.00     0.019 A 
ATOM     18  C   UNL     1     116.341 158.684 116.978  1.00  0.00     0.012 A 
ATOM     19  C   UNL     1     115.208 156.707 116.133  1.00  0.00     0.050 A 
ATOM     20  C   UNL     1     116.920 157.919 117.990  1.00  0.00     0.001 A 
ATOM     21  C   UNL     1     115.795 155.949 117.151  1.00  0.00     0.021 A 
ATOM     22  C   UNL     1     116.648 156.554 118.076  1.00  0.00     0.002 A 
ATOM     23  Cl  UNL     1     114.208 155.892 114.987  1.00  0.00    -0.084 Cl
ENDBRANCH  14  17
TORSDOF 1
ENDMDL
MODEL 8
REMARK VINA RESULT:    -7.303      4.002      5.981
REMARK INTER + INTRA:          -7.793
REMARK INTER:                  -7.200
REMARK INTRA:                  -0.593
REMARK UNBOUND:                -0.063
REMARK SMILES Cc1nnc2n1-c1ccc(Cl)cc1C(c1ccccc1Cl)=NC2
REMARK SMILES IDX 1 1 2 2 3 3 4 4 5 5 6 6 7 7 8 8 9 9 10 10 11 11 12 12 13 13
REMARK SMILES IDX 14 14 22 15 23 16 15 17 16 18 20 19 17 20 19 21 18 22 21 23
REMARK H PARENT
ROOT
ATOM      1  C   UNL     1     116.819 156.473 118.271  1.00  0.00     0.090 C 
ATOM      2  C   UNL     1     116.062 155.649 117.299  1.00  0.00     0.134 A 
ATOM      3  N   UNL     1     115.864 154.353 117.429  1.00  0.00    -0.135 NA
ATOM      4  N   UNL     1     115.269 153.893 116.290  1.00  0.00    -0.133 NA
ATOM      5  C   UNL     1     115.104 154.914 115.477  1.00  0.00     0.159 A 
ATOM      6  N   UNL     1     115.550 156.070 116.079  1.00  0.00    -0.281 N 
ATOM      7  C   UNL     1     115.423 157.381 115.549  1.00  0.00     0.058 A 
ATOM      8  C   UNL     1     115.190 158.453 116.429  1.00  0.00     0.029 A 
ATOM      9  C   UNL     1     115.009 159.748 115.941  1.00  0.00     0.023 A 
ATOM     10  C   UNL     1     115.049 159.983 114.573  1.00  0.00     0.041 A 
ATOM     11  Cl  UNL     1     114.816 161.578 113.972  1.00  0.00    -0.084 Cl
ATOM     12  C   UNL     1     115.275 158.935 113.684  1.00  0.00     0.033 A 
ATOM     13  C   UNL     1     115.470 157.625 114.159  1.00  0.00     0.026 A 
ATOM     14  C   UNL     1     115.816 156.577 113.145  1.00  0.00     0.076 C 
ATOM     15  N   UNL     1     115.392 155.362 113.131  1.00  0.00    -0.276 NA
ATOM     16  C   UNL     1     114.458 154.902 114.149  1.00  0.00     0.220 C 
ENDROOT
BRANCH  14  17
ATOM     17  C   UNL     1     116.776 156.950 112.073  1.00  0.00     0.019 A 
ATOM     18  C   UNL     1     116.299 157.004 110.758  1.00  0.00     0.012 A 
ATOM     19  C   UNL     1     118.110 157.266 112.357  1.00  0.00     0.050 A 
ATOM     20  C   UNL     1     117.162 157.364 109.722  1.00  0.00     0.001 A 
ATOM     21  C   UNL     1     118.967 157.625 111.312  1.00  0.00     0.021 A 
ATOM     22  C   UNL     1     118.493 157.673 109.999  1.00  0.00     0.002 A 
ATOM     23  Cl  UNL     1     118.767 157.169 113.950  1.00  0.00    -0.084 Cl
ENDBRANCH  14  17
TORSDOF 1
ENDMDL
MODEL 9
REMARK VINA RESULT:    -7.262      2.755      4.735
REMARK INTER + INTRA:          -7.750
REMARK INTER:                  -8.004
REMARK INTRA:                   0.255
REMARK UNBOUND:                -0.063
REMARK SMILES Cc1nnc2n1-c1ccc(Cl)cc1C(c1ccccc1Cl)=NC2
REMARK SMILES IDX 1 1 2 2 3 3 4 4 5 5 6 6 7 7 8 8 9 9 10 10 11 11 12 12 13 13
REMARK SMILES IDX 14 14 22 15 23 16 15 17 16 18 20 19 17 20 19 21 18 22 21 23
REMARK H PARENT
ROOT
ATOM      1  C   UNL     1     117.790 157.087 115.009  1.00  0.00     0.090 C 
ATOM      2  C   UNL     1     117.279 156.462 113.767  1.00  0.00     0.134 A 
ATOM      3  N   UNL     1     117.057 155.170 113.630  1.00  0.00    -0.135 NA
ATOM      4  N   UNL     1     116.742 154.924 112.325  1.00  0.00    -0.133 NA
ATOM      5  C   UNL     1     116.769 156.068 111.678  1.00  0.00     0.159 A 
ATOM      6  N   UNL     1     117.063 157.094 112.550  1.00  0.00    -0.281 N 
ATOM      7  C   UNL     1     117.062 158.478 112.231  1.00  0.00     0.058 A 
ATOM      8  C   UNL     1     116.631 159.401 113.200  1.00  0.00     0.029 A 
ATOM      9  C   UNL     1     116.567 160.764 112.907  1.00  0.00     0.023 A 
ATOM     10  C   UNL     1     116.922 161.216 111.643  1.00  0.00     0.041 A 
ATOM     11  Cl  UNL     1     116.833 162.895 111.280  1.00  0.00    -0.084 Cl
ATOM     12  C   UNL     1     117.348 160.318 110.668  1.00  0.00     0.033 A 
ATOM     13  C   UNL     1     117.429 158.942 110.949  1.00  0.00     0.026 A 
ATOM     14  C   UNL     1     118.001 158.060 109.881  1.00  0.00     0.076 C 
ATOM     15  N   UNL     1     117.592 156.880 109.567  1.00  0.00    -0.276 NA
ATOM     16  C   UNL     1     116.448 156.297 110.254  1.00  0.00     0.220 C 
ENDROOT
BRANCH  14  17
ATOM     17  C   UNL     1     119.182 158.565 109.134  1.00  0.00     0.019 A 
ATOM     18  C   UNL     1     120.127 159.321 109.839  1.00  0.00     0.012 A 
ATOM     19  C   UNL     1     119.373 158.279 107.777  1.00  0.00     0.050 A 
ATOM     20  C   UNL     1     121.259 159.802 109.181  1.00  0.00     0.001 A 
ATOM     21  C   UNL     1     120.510 158.766 107.126  1.00  0.00     0.021 A 
ATOM     22  C   UNL     1     121.450 159.526 107.827  1.00  0.00     0.002 A 
ATOM     23  Cl  UNL     1     118.220 157.395 106.846  1.00  0.00    -0.084 Cl
ENDBRANCH  14  17
TORSDOF 1
ENDMDL
