MODEL 1
REMARK VINA RESULT:    -6.885      0.000      0.000
REMARK INTER + INTRA:          -7.890
REMARK INTER:                  -7.489
REMARK INTRA:                  -0.401
REMARK UNBOUND:                -0.401
REMARK SMILES CN1C(=O)C(O)N=C(c2ccccc2)c2cc(Cl)ccc21
REMARK SMILES IDX 1 1 2 2 3 3 4 4 5 5 7 6 8 7 15 8 16 9 17 10 18 11 19 12
REMARK SMILES IDX 20 13 21 14 6 15 9 17 10 18 14 19 11 20 13 21 12 22
REMARK H PARENT 6 16
ROOT
ATOM      1  C   UNL     1     140.002  98.217 134.759  1.00  0.00     0.153 C 
ATOM      2  N   UNL     1     141.411  98.076 135.106  1.00  0.00    -0.311 N 
ATOM      3  C   UNL     1     142.340  98.679 134.248  1.00  0.00     0.278 C 
ATOM      4  O   UNL     1     142.011  99.195 133.174  1.00  0.00    -0.269 OA
ATOM      5  C   UNL     1     143.817  98.727 134.733  1.00  0.00     0.323 C 
ATOM      6  N   UNL     1     144.353  97.385 134.571  1.00  0.00    -0.243 NA
ATOM      7  C   UNL     1     143.934  96.465 135.373  1.00  0.00     0.078 C 
ATOM      8  C   UNL     1     142.973  96.702 136.494  1.00  0.00     0.026 A 
ATOM      9  C   UNL     1     143.298  96.131 137.738  1.00  0.00     0.033 A 
ATOM     10  C   UNL     1     142.403  96.211 138.799  1.00  0.00     0.041 A 
ATOM     11  Cl  UNL     1     142.799  95.497 140.312  1.00  0.00    -0.084 Cl
ATOM     12  C   UNL     1     141.184  96.856 138.635  1.00  0.00     0.023 A 
ATOM     13  C   UNL     1     140.869  97.446 137.408  1.00  0.00     0.028 A 
ATOM     14  C   UNL     1     141.764  97.408 136.321  1.00  0.00     0.053 A 
ENDROOT
BRANCH   5  15
ATOM     15  O   UNL     1     144.550  99.689 133.991  1.00  0.00    -0.364 OA
ATOM     16  H   UNL     1     145.459  99.338 133.999  1.00  0.00     0.213 HD
ENDBRANCH   5  15
BRANCH   7  17
ATOM     17  C   UNL     1     144.456  95.079 135.155  1.00  0.00     0.000 A 
ATOM     18  C   UNL     1     143.693  94.177 134.402  1.00  0.00     0.010 A 
ATOM     19  C   UNL     1     145.672  94.663 135.712  1.00  0.00     0.010 A 
ATOM     20  C   UNL     1     144.157  92.879 134.185  1.00  0.00     0.001 A 
ATOM     21  C   UNL     1     146.132  93.363 135.491  1.00  0.00     0.001 A 
ATOM     22  C   UNL     1     145.377  92.474 134.725  1.00  0.00     0.000 A 
ENDBRANCH   7  17
TORSDOF 2
ENDMDL
MODEL 2
REMARK VINA RESULT:    -6.709      3.723      5.332
REMARK INTER + INTRA:          -7.698
REMARK INTER:                  -7.209
REMARK INTRA:                  -0.488
REMARK UNBOUND:                -0.401
REMARK SMILES CN1C(=O)C(O)N=C(c2ccccc2)c2cc(Cl)ccc21
REMARK SMILES IDX 1 1 2 2 3 3 4 4 5 5 7 6 8 7 15 8 16 9 17 10 18 11 19 12
REMARK SMILES IDX 20 13 21 14 6 15 9 17 10 18 14 19 11 20 13 21 12 22
REMARK H PARENT 6 16
ROOT
ATOM      1  C   UNL     1     138.927 100.620 134.537  1.00  0.00     0.153 C 
ATOM      2  N   UNL     1     139.748  99.777 133.676  1.00  0.00    -0.311 N 
ATOM      3  C   UNL     1     140.123 100.310 132.436  1.00  0.00     0.278 C 
ATOM      4  O   UNL     1     139.680 101.385 132.016  1.00  0.00    -0.269 OA
ATOM      5  C   UNL     1     141.179  99.512 131.618  1.00  0.00     0.323 C 
ATOM      6  N   UNL     1     140.489  98.362 131.054  1.00  0.00    -0.243 NA
ATOM      7  C   UNL     1     140.136  97.416 131.857  1.00  0.00     0.078 C 
ATOM      8  C   UNL     1     140.438  97.399 133.322  1.00  0.00     0.026 A 
ATOM      9  C   UNL     1     140.940  96.196 133.851  1.00  0.00     0.033 A 
ATOM     10  C   UNL     1     141.140  96.065 135.221  1.00  0.00     0.041 A 
ATOM     11  Cl  UNL     1     141.738  94.587 135.863  1.00  0.00    -0.084 Cl
ATOM     12  C   UNL     1     140.847  97.122 136.072  1.00  0.00     0.023 A 
ATOM     13  C   UNL     1     140.372  98.327 135.547  1.00  0.00     0.028 A 
ATOM     14  C   UNL     1     140.184  98.504 134.162  1.00  0.00     0.053 A 
ENDROOT
BRANCH   5  15
ATOM     15  O   UNL     1     141.752 100.336 130.615  1.00  0.00    -0.364 OA
ATOM     16  H   UNL     1     142.628  99.935 130.465  1.00  0.00     0.213 HD
ENDBRANCH   5  15
BRANCH   7  17
ATOM     17  C   UNL     1     139.378  96.267 131.267  1.00  0.00     0.000 A 
ATOM     18  C   UNL     1     140.057  95.356 130.448  1.00  0.00     0.010 A 
ATOM     19  C   UNL     1     138.005  96.106 131.496  1.00  0.00     0.010 A 
ATOM     20  C   UNL     1     139.374  94.277 129.885  1.00  0.00     0.001 A 
ATOM     21  C   UNL     1     137.327  95.024 130.931  1.00  0.00     0.001 A 
ATOM     22  C   UNL     1     138.011  94.109 130.130  1.00  0.00     0.000 A 
ENDBRANCH   7  17
TORSDOF 2
ENDMDL
MODEL 3
REMARK VINA RESULT:    -6.621      1.433      1.881
REMARK INTER + INTRA:          -7.602
REMARK INTER:                  -7.097
REMARK INTRA:                  -0.505
REMARK UNBOUND:                -0.401
REMARK SMILES CN1C(=O)C(O)N=C(c2ccccc2)c2cc(Cl)ccc21
REMARK SMILES IDX 1 1 2 2 3 3 4 4 5 5 7 6 8 7 15 8 16 9 17 10 18 11 19 12
REMARK SMILES IDX 20 13 21 14 6 15 9 17 10 18 14 19 11 20 13 21 12 22
REMARK H PARENT 6 16
ROOT
ATOM      1  C   UNL     1     140.105  98.315 133.339  1.00  0.00     0.153 C 
ATOM      2  N   UNL     1     141.545  98.236 133.551  1.00  0.00    -0.311 N 
ATOM      3  C   UNL     1     142.367  98.621 132.483  1.00  0.00     0.278 C 
ATOM      4  O   UNL     1     141.915  98.889 131.364  1.00  0.00    -0.269 OA
ATOM      5  C   UNL     1     143.888  98.755 132.779  1.00  0.00     0.323 C 
ATOM      6  N   UNL     1     144.418  97.404 132.861  1.00  0.00    -0.243 NA
ATOM      7  C   UNL     1     144.100  96.691 133.889  1.00  0.00     0.078 C 
ATOM      8  C   UNL     1     143.267  97.183 135.028  1.00  0.00     0.026 A 
ATOM      9  C   UNL     1     143.734  96.899 136.325  1.00  0.00     0.033 A 
ATOM     10  C   UNL     1     142.961  97.224 137.433  1.00  0.00     0.041 A 
ATOM     11  Cl  UNL     1     143.529  96.860 139.013  1.00  0.00    -0.084 Cl
ATOM     12  C   UNL     1     141.724  97.833 137.265  1.00  0.00     0.023 A 
ATOM     13  C   UNL     1     141.268  98.140 135.980  1.00  0.00     0.028 A 
ATOM     14  C   UNL     1     142.038  97.850 134.837  1.00  0.00     0.053 A 
ENDROOT
BRANCH   5  15
ATOM     15  O   UNL     1     144.523  99.519 131.765  1.00  0.00    -0.364 OA
ATOM     16  H   UNL     1     144.750  98.855 131.089  1.00  0.00     0.213 HD
ENDBRANCH   5  15
BRANCH   7  17
ATOM     17  C   UNL     1     144.611  95.284 133.928  1.00  0.00     0.000 A 
ATOM     18  C   UNL     1     145.992  95.065 134.016  1.00  0.00     0.010 A 
ATOM     19  C   UNL     1     143.739  94.190 133.849  1.00  0.00     0.010 A 
ATOM     20  C   UNL     1     146.493  93.764 134.054  1.00  0.00     0.001 A 
ATOM     21  C   UNL     1     144.246  92.890 133.888  1.00  0.00     0.001 A 
ATOM     22  C   UNL     1     145.621  92.678 133.994  1.00  0.00     0.000 A 
ENDBRANCH   7  17
TORSDOF 2
ENDMDL
MODEL 4
REMARK VINA RESULT:    -6.533      3.890      6.272
REMARK INTER + INTRA:          -7.507
REMARK INTER:                  -7.209
REMARK INTRA:                  -0.298
REMARK UNBOUND:                -0.401
REMARK SMILES CN1C(=O)C(O)N=C(c2ccccc2)c2cc(Cl)ccc21
REMARK SMILES IDX 1 1 2 2 3 3 4 4 5 5 7 6 8 7 15 8 16 9 17 10 18 11 19 12
REMARK SMILES IDX 20 13 21 14 6 15 9 17 10 18 14 19 11 20 13 21 12 22
REMARK H PARENT 6 16
ROOT
ATOM      1  C   UNL     1     140.456  98.575 136.651  1.00  0.00     0.153 C 
ATOM      2  N   UNL     1     140.378  98.872 135.226  1.00  0.00    -0.311 N 
ATOM      3  C   UNL     1     139.609  99.981 134.849  1.00  0.00     0.278 C 
ATOM      4  O   UNL     1     138.915 100.610 135.655  1.00  0.00    -0.269 OA
ATOM      5  C   UNL     1     139.709 100.433 133.363  1.00  0.00     0.323 C 
ATOM      6  N   UNL     1     138.937  99.478 132.584  1.00  0.00    -0.243 NA
ATOM      7  C   UNL     1     139.417  98.289 132.439  1.00  0.00     0.078 C 
ATOM      8  C   UNL     1     140.740  97.845 132.975  1.00  0.00     0.026 A 
ATOM      9  C   UNL     1     141.568  97.119 132.098  1.00  0.00     0.033 A 
ATOM     10  C   UNL     1     142.763  96.576 132.553  1.00  0.00     0.041 A 
ATOM     11  Cl  UNL     1     143.762  95.677 131.482  1.00  0.00    -0.084 Cl
ATOM     12  C   UNL     1     143.147  96.748 133.877  1.00  0.00     0.023 A 
ATOM     13  C   UNL     1     142.340  97.490 134.744  1.00  0.00     0.028 A 
ATOM     14  C   UNL     1     141.136  98.078 134.309  1.00  0.00     0.053 A 
ENDROOT
BRANCH   5  15
ATOM     15  O   UNL     1     139.224 101.759 133.218  1.00  0.00    -0.364 OA
ATOM     16  H   UNL     1     138.388 101.643 132.731  1.00  0.00     0.213 HD
ENDBRANCH   5  15
BRANCH   7  17
ATOM     17  C   UNL     1     138.582  97.304 131.679  1.00  0.00     0.000 A 
ATOM     18  C   UNL     1     137.822  97.755 130.593  1.00  0.00     0.010 A 
ATOM     19  C   UNL     1     138.527  95.955 132.054  1.00  0.00     0.010 A 
ATOM     20  C   UNL     1     137.036  96.858 129.869  1.00  0.00     0.001 A 
ATOM     21  C   UNL     1     137.739  95.062 131.325  1.00  0.00     0.001 A 
ATOM     22  C   UNL     1     136.997  95.512 130.233  1.00  0.00     0.000 A 
ENDBRANCH   7  17
TORSDOF 2
ENDMDL
MODEL 5
REMARK VINA RESULT:    -6.445      2.143      4.609
REMARK INTER + INTRA:          -7.411
REMARK INTER:                  -7.117
REMARK INTRA:                  -0.294
REMARK UNBOUND:                -0.401
REMARK SMILES CN1C(=O)C(O)N=C(c2ccccc2)c2cc(Cl)ccc21
REMARK SMILES IDX 1 1 2 2 3 3 4 4 5 5 7 6 8 7 15 8 16 9 17 10 18 11 19 12
REMARK SMILES IDX 20 13 21 14 6 15 9 17 10 18 14 19 11 20 13 21 12 22
REMARK H PARENT 6 16
ROOT
ATOM      1  C   UNL     1     143.437  99.103 133.662  1.00  0.00     0.153 C 
ATOM      2  N   UNL     1     142.806  98.035 134.428  1.00  0.00    -0.311 N 
ATOM      3  C   UNL     1     141.442  98.180 134.716  1.00  0.00     0.278 C 
ATOM      4  O   UNL     1     140.818  99.216 134.458  1.00  0.00    -0.269 OA
ATOM      5  C   UNL     1     140.718  96.948 135.329  1.00  0.00     0.323 C 
ATOM      6  N   UNL     1     141.130  96.872 136.722  1.00  0.00    -0.243 NA
ATOM      7  C   UNL     1     142.342  96.509 136.975  1.00  0.00     0.078 C 
ATOM      8  C   UNL     1     143.335  96.108 135.931  1.00  0.00     0.026 A 
ATOM      9  C   UNL     1     144.077  94.938 136.179  1.00  0.00     0.033 A 
ATOM     10  C   UNL     1     145.096  94.560 135.312  1.00  0.00     0.041 A 
ATOM     11  Cl  UNL     1     146.009  93.140 135.628  1.00  0.00    -0.084 Cl
ATOM     12  C   UNL     1     145.385  95.336 134.197  1.00  0.00     0.023 A 
ATOM     13  C   UNL     1     144.633  96.485 133.934  1.00  0.00     0.028 A 
ATOM     14  C   UNL     1     143.576  96.882 134.776  1.00  0.00     0.053 A 
ENDROOT
BRANCH   5  15
ATOM     15  O   UNL     1     139.312  97.083 135.193  1.00  0.00    -0.364 OA
ATOM     16  H   UNL     1     139.212  97.603 134.375  1.00  0.00     0.213 HD
ENDBRANCH   5  15
BRANCH   7  17
ATOM     17  C   UNL     1     142.763  96.491 138.412  1.00  0.00     0.000 A 
ATOM     18  C   UNL     1     141.831  96.116 139.388  1.00  0.00     0.010 A 
ATOM     19  C   UNL     1     144.057  96.867 138.796  1.00  0.00     0.010 A 
ATOM     20  C   UNL     1     142.198  96.091 140.734  1.00  0.00     0.001 A 
ATOM     21  C   UNL     1     144.419  96.840 140.145  1.00  0.00     0.001 A 
ATOM     22  C   UNL     1     143.492  96.449 141.111  1.00  0.00     0.000 A 
ENDBRANCH   7  17
TORSDOF 2
ENDMDL
MODEL 6
REMARK VINA RESULT:    -6.378      3.497      5.225
REMARK INTER + INTRA:          -7.338
REMARK INTER:                  -7.448
REMARK INTRA:                   0.110
REMARK UNBOUND:                -0.401
REMARK SMILES CN1C(=O)C(O)N=C(c2ccccc2)c2cc(Cl)ccc21
REMARK SMILES IDX 1 1 2 2 3 3 4 4 5 5 7 6 8 7 15 8 16 9 17 10 18 11 19 12
REMARK SMILES IDX 20 13 21 14 6 15 9 17 10 18 14 19 11 20 13 21 12 22
REMARK H PARENT 6 16
ROOT
ATOM      1  C   UNL     1     140.359  96.829 130.705  1.00  0.00     0.153 C 
ATOM      2  N   UNL     1     141.026  97.722 131.645  1.00  0.00    -0.311 N 
ATOM      3  C   UNL     1     142.426  97.764 131.597  1.00  0.00     0.278 C 
ATOM      4  O   UNL     1     143.088  96.993 130.894  1.00  0.00    -0.269 OA
ATOM      5  C   UNL     1     143.125  98.875 132.432  1.00  0.00     0.323 C 
ATOM      6  N   UNL     1     143.062  98.454 133.823  1.00  0.00    -0.243 NA
ATOM      7  C   UNL     1     141.915  98.485 134.412  1.00  0.00     0.078 C 
ATOM      8  C   UNL     1     140.656  98.977 133.776  1.00  0.00     0.026 A 
ATOM      9  C   UNL     1     139.862  99.855 134.537  1.00  0.00     0.033 A 
ATOM     10  C   UNL     1     138.623 100.269 134.061  1.00  0.00     0.041 A 
ATOM     11  Cl  UNL     1     137.651 101.328 135.003  1.00  0.00    -0.084 Cl
ATOM     12  C   UNL     1     138.164  99.818 132.831  1.00  0.00     0.023 A 
ATOM     13  C   UNL     1     138.961  98.966 132.060  1.00  0.00     0.028 A 
ATOM     14  C   UNL     1     140.233  98.550 132.499  1.00  0.00     0.053 A 
ENDROOT
BRANCH   5  15
ATOM     15  O   UNL     1     144.460  99.060 131.988  1.00  0.00    -0.364 OA
ATOM     16  H   UNL     1     144.975  98.465 132.563  1.00  0.00     0.213 HD
ENDBRANCH   5  15
BRANCH   7  17
ATOM     17  C   UNL     1     141.861  97.995 135.827  1.00  0.00     0.000 A 
ATOM     18  C   UNL     1     143.052  97.611 136.458  1.00  0.00     0.010 A 
ATOM     19  C   UNL     1     140.645  97.887 136.514  1.00  0.00     0.010 A 
ATOM     20  C   UNL     1     143.029  97.151 137.775  1.00  0.00     0.001 A 
ATOM     21  C   UNL     1     140.628  97.427 137.832  1.00  0.00     0.001 A 
ATOM     22  C   UNL     1     141.818  97.063 138.462  1.00  0.00     0.000 A 
ENDBRANCH   7  17
TORSDOF 2
ENDMDL
MODEL 7
REMARK VINA RESULT:    -6.362      2.272      2.820
REMARK INTER + INTRA:          -7.321
REMARK INTER:                  -6.836
REMARK INTRA:                  -0.484
REMARK UNBOUND:                -0.401
REMARK SMILES CN1C(=O)C(O)N=C(c2ccccc2)c2cc(Cl)ccc21
REMARK SMILES IDX 1 1 2 2 3 3 4 4 5 5 7 6 8 7 15 8 16 9 17 10 18 11 19 12
REMARK SMILES IDX 20 13 21 14 6 15 9 17 10 18 14 19 11 20 13 21 12 22
REMARK H PARENT 6 16
ROOT
ATOM      1  C   UNL     1     138.924  99.422 133.351  1.00  0.00     0.153 C 
ATOM      2  N   UNL     1     140.294  98.929 133.268  1.00  0.00    -0.311 N 
ATOM      3  C   UNL     1     140.987  99.177 132.076  1.00  0.00     0.278 C 
ATOM      4  O   UNL     1     140.441  99.669 131.083  1.00  0.00    -0.269 OA
ATOM      5  C   UNL     1     142.510  98.857 132.069  1.00  0.00     0.323 C 
ATOM      6  N   UNL     1     142.632  97.410 131.983  1.00  0.00    -0.243 NA
ATOM      7  C   UNL     1     142.310  96.714 133.021  1.00  0.00     0.078 C 
ATOM      8  C   UNL     1     141.871  97.301 134.324  1.00  0.00     0.026 A 
ATOM      9  C   UNL     1     142.460  96.771 135.487  1.00  0.00     0.033 A 
ATOM     10  C   UNL     1     142.025  97.185 136.741  1.00  0.00     0.041 A 
ATOM     11  Cl  UNL     1     142.736  96.522 138.158  1.00  0.00    -0.084 Cl
ATOM     12  C   UNL     1     141.008  98.124 136.851  1.00  0.00     0.023 A 
ATOM     13  C   UNL     1     140.439  98.671 135.697  1.00  0.00     0.028 A 
ATOM     14  C   UNL     1     140.874  98.296 134.411  1.00  0.00     0.053 A 
ENDROOT
BRANCH   5  15
ATOM     15  O   UNL     1     143.147  99.513 130.984  1.00  0.00    -0.364 OA
ATOM     16  H   UNL     1     143.188  98.825 130.295  1.00  0.00     0.213 HD
ENDBRANCH   5  15
BRANCH   7  17
ATOM     17  C   UNL     1     142.390  95.224 132.894  1.00  0.00     0.000 A 
ATOM     18  C   UNL     1     141.203  94.487 132.795  1.00  0.00     0.010 A 
ATOM     19  C   UNL     1     143.622  94.558 132.904  1.00  0.00     0.010 A 
ATOM     20  C   UNL     1     141.250  93.097 132.677  1.00  0.00     0.001 A 
ATOM     21  C   UNL     1     143.664  93.167 132.785  1.00  0.00     0.001 A 
ATOM     22  C   UNL     1     142.480  92.439 132.668  1.00  0.00     0.000 A 
ENDBRANCH   7  17
TORSDOF 2
ENDMDL
MODEL 8
REMARK VINA RESULT:    -6.115      1.741      2.439
REMARK INTER + INTRA:          -7.052
REMARK INTER:                  -7.033
REMARK INTRA:                  -0.020
REMARK UNBOUND:                -0.401
REMARK SMILES CN1C(=O)C(O)N=C(c2ccccc2)c2cc(Cl)ccc21
REMARK SMILES IDX 1 1 2 2 3 3 4 4 5 5 7 6 8 7 15 8 16 9 17 10 18 11 19 12
REMARK SMILES IDX 20 13 21 14 6 15 9 17 10 18 14 19 11 20 13 21 12 22
REMARK H PARENT 6 16
ROOT
ATOM      1  C   UNL     1     140.160  98.036 137.474  1.00  0.00     0.153 C 
ATOM      2  N   UNL     1     141.211  97.877 136.476  1.00  0.00    -0.311 N 
ATOM      3  C   UNL     1     141.030  98.536 135.252  1.00  0.00     0.278 C 
ATOM      4  O   UNL     1     139.978  99.119 134.964  1.00  0.00    -0.269 OA
ATOM      5  C   UNL     1     142.243  98.557 134.279  1.00  0.00     0.323 C 
ATOM      6  N   UNL     1     142.329  97.229 133.691  1.00  0.00    -0.243 NA
ATOM      7  C   UNL     1     142.724  96.259 134.445  1.00  0.00     0.078 C 
ATOM      8  C   UNL     1     143.151  96.421 135.868  1.00  0.00     0.026 A 
ATOM      9  C   UNL     1     144.340  95.773 136.251  1.00  0.00     0.033 A 
ATOM     10  C   UNL     1     144.745  95.782 137.581  1.00  0.00     0.041 A 
ATOM     11  Cl  UNL     1     146.189  94.974 138.044  1.00  0.00    -0.084 Cl
ATOM     12  C   UNL     1     143.977  96.433 138.538  1.00  0.00     0.023 A 
ATOM     13  C   UNL     1     142.809  97.099 138.157  1.00  0.00     0.028 A 
ATOM     14  C   UNL     1     142.384  97.134 136.815  1.00  0.00     0.053 A 
ENDROOT
BRANCH   5  15
ATOM     15  O   UNL     1     142.071  99.567 133.297  1.00  0.00    -0.364 OA
ATOM     16  H   UNL     1     141.161  99.881 133.451  1.00  0.00     0.213 HD
ENDBRANCH   5  15
BRANCH   7  17
ATOM     17  C   UNL     1     142.753  94.891 133.837  1.00  0.00     0.000 A 
ATOM     18  C   UNL     1     141.546  94.291 133.458  1.00  0.00     0.010 A 
ATOM     19  C   UNL     1     143.957  94.195 133.669  1.00  0.00     0.010 A 
ATOM     20  C   UNL     1     141.546  93.017 132.889  1.00  0.00     0.001 A 
ATOM     21  C   UNL     1     143.952  92.920 133.099  1.00  0.00     0.001 A 
ATOM     22  C   UNL     1     142.748  92.334 132.707  1.00  0.00     0.000 A 
ENDBRANCH   7  17
TORSDOF 2
ENDMDL
MODEL 9
REMARK VINA RESULT:    -6.059      3.239      4.858
REMARK INTER + INTRA:          -6.991
REMARK INTER:                  -6.501
REMARK INTRA:                  -0.490
REMARK UNBOUND:                -0.401
REMARK SMILES CN1C(=O)C(O)N=C(c2ccccc2)c2cc(Cl)ccc21
REMARK SMILES IDX 1 1 2 2 3 3 4 4 5 5 7 6 8 7 15 8 16 9 17 10 18 11 19 12
REMARK SMILES IDX 20 13 21 14 6 15 9 17 10 18 14 19 11 20 13 21 12 22
REMARK H PARENT 6 16
ROOT
ATOM      1  C   UNL     1     140.773  99.790 132.664  1.00  0.00     0.153 C 
ATOM      2  N   UNL     1     140.837  98.409 133.128  1.00  0.00    -0.311 N 
ATOM      3  C   UNL     1     139.626  97.800 133.480  1.00  0.00     0.278 C 
ATOM      4  O   UNL     1     138.561  98.425 133.530  1.00  0.00    -0.269 OA
ATOM      5  C   UNL     1     139.662  96.269 133.755  1.00  0.00     0.323 C 
ATOM      6  N   UNL     1     140.272  96.094 135.064  1.00  0.00    -0.243 NA
ATOM      7  C   UNL     1     141.537  96.324 135.176  1.00  0.00     0.078 C 
ATOM      8  C   UNL     1     142.427  96.706 134.037  1.00  0.00     0.026 A 
ATOM      9  C   UNL     1     143.656  96.027 133.938  1.00  0.00     0.033 A 
ATOM     10  C   UNL     1     144.585  96.401 132.975  1.00  0.00     0.041 A 
ATOM     11  Cl  UNL     1     146.091  95.579 132.869  1.00  0.00    -0.084 Cl
ATOM     12  C   UNL     1     144.304  97.446 132.105  1.00  0.00     0.023 A 
ATOM     13  C   UNL     1     143.075  98.106 132.184  1.00  0.00     0.028 A 
ATOM     14  C   UNL     1     142.099  97.735 133.129  1.00  0.00     0.053 A 
ENDROOT
BRANCH   5  15
ATOM     15  O   UNL     1     138.352  95.726 133.698  1.00  0.00    -0.364 OA
ATOM     16  H   UNL     1     138.507  94.767 133.624  1.00  0.00     0.213 HD
ENDBRANCH   5  15
BRANCH   7  17
ATOM     17  C   UNL     1     142.136  96.192 136.543  1.00  0.00     0.000 A 
ATOM     18  C   UNL     1     142.728  97.314 137.136  1.00  0.00     0.010 A 
ATOM     19  C   UNL     1     142.138  94.966 137.221  1.00  0.00     0.010 A 
ATOM     20  C   UNL     1     143.293  97.218 138.407  1.00  0.00     0.001 A 
ATOM     21  C   UNL     1     142.705  94.875 138.494  1.00  0.00     0.001 A 
ATOM     22  C   UNL     1     143.278  96.000 139.087  1.00  0.00     0.000 A 
ENDBRANCH   7  17
TORSDOF 2
ENDMDL
