REMARK SMILES Cc1nnc2n1-c1sc(Br)cc1C(c1ccccc1Cl)=NC2
REMARK SMILES IDX 1 1 2 2 3 3 4 4 5 5 6 6 7 7 8 8 9 9 10 10 11 11 12 12 13 13
REMARK SMILES IDX 21 14 22 15 14 16 15 17 19 18 16 19 18 20 17 21 20 22
REMARK H PARENT
ROOT
ATOM      1  C   UNL     1      -4.286  -1.506  -0.111  1.00  0.00     0.090 C 
ATOM      2  C   UNL     1      -3.531  -0.541  -0.945  1.00  0.00     0.135 A 
ATOM      3  N   UNL     1      -3.845  -0.249  -2.192  1.00  0.00    -0.135 NA
ATOM      4  N   UNL     1      -2.900   0.600  -2.687  1.00  0.00    -0.133 NA
ATOM      5  C   UNL     1      -2.021   0.821  -1.735  1.00  0.00     0.160 A 
ATOM      6  N   UNL     1      -2.358   0.117  -0.594  1.00  0.00    -0.272 N 
ATOM      7  C   UNL     1      -1.621   0.165   0.595  1.00  0.00     0.113 A 
ATOM      8  S   UNL     1      -2.388  -0.117   2.083  1.00  0.00    -0.110 S 
ATOM      9  C   UNL     1      -0.964   0.196   2.933  1.00  0.00     0.073 A 
ATOM     10  Br  UNL     1      -0.840   0.128   4.837  1.00  0.00    -0.039 Br
ATOM     11  C   UNL     1       0.095   0.492   2.115  1.00  0.00     0.040 A 
ATOM     12  C   UNL     1      -0.271   0.462   0.717  1.00  0.00     0.037 A 
ATOM     13  C   UNL     1       0.670   0.626  -0.397  1.00  0.00     0.077 C 
ATOM     14  N   UNL     1       0.391   1.201  -1.513  1.00  0.00    -0.276 NA
ATOM     15  C   UNL     1      -0.912   1.803  -1.764  1.00  0.00     0.220 C 
ENDROOT
BRANCH  13  16
ATOM     16  C   UNL     1       2.054   0.116  -0.212  1.00  0.00     0.019 A 
ATOM     17  C   UNL     1       3.101   1.041  -0.339  1.00  0.00     0.012 A 
ATOM     18  C   UNL     1       2.337  -1.228   0.058  1.00  0.00     0.050 A 
ATOM     19  C   UNL     1       4.423   0.630  -0.163  1.00  0.00     0.001 A 
ATOM     20  C   UNL     1       3.664  -1.632   0.234  1.00  0.00     0.021 A 
ATOM     21  C   UNL     1       4.703  -0.704   0.129  1.00  0.00     0.002 A 
ATOM     22  Cl  UNL     1       1.114  -2.446   0.141  1.00  0.00    -0.084 Cl
ENDBRANCH  13  16
TORSDOF 1
