REMARK SMILES CN1C(=O)C(O)N=C(c2ccccc2Cl)c2cc(Cl)ccc21
REMARK SMILES IDX 1 1 2 2 3 3 4 4 5 5 7 6 8 7 16 8 17 9 18 10 19 11 20 12
REMARK SMILES IDX 21 13 22 14 6 15 9 17 10 18 14 19 11 20 13 21 12 22 15 23
REMARK H PARENT 6 16
ROOT
ATOM      1  C   UNL     1      -3.518  -0.570   1.124  1.00  0.00     0.153 C 
ATOM      2  N   UNL     1      -2.406  -0.607   0.184  1.00  0.00    -0.311 N 
ATOM      3  C   UNL     1      -2.200  -1.806  -0.508  1.00  0.00     0.278 C 
ATOM      4  O   UNL     1      -2.896  -2.808  -0.307  1.00  0.00    -0.269 OA
ATOM      5  C   UNL     1      -1.118  -1.824  -1.621  1.00  0.00     0.323 C 
ATOM      6  N   UNL     1       0.193  -1.750  -0.986  1.00  0.00    -0.243 NA
ATOM      7  C   UNL     1       0.536  -0.640  -0.427  1.00  0.00     0.079 C 
ATOM      8  C   UNL     1      -0.292   0.600  -0.401  1.00  0.00     0.026 A 
ATOM      9  C   UNL     1       0.373   1.813  -0.663  1.00  0.00     0.033 A 
ATOM     10  C   UNL     1      -0.301   3.022  -0.533  1.00  0.00     0.041 A 
ATOM     11  Cl  UNL     1       0.521   4.499  -0.845  1.00  0.00    -0.084 Cl
ATOM     12  C   UNL     1      -1.631   3.039  -0.141  1.00  0.00     0.023 A 
ATOM     13  C   UNL     1      -2.299   1.835   0.103  1.00  0.00     0.028 A 
ATOM     14  C   UNL     1      -1.656   0.590  -0.045  1.00  0.00     0.053 A 
ENDROOT
BRANCH   5  15
ATOM     15  O   UNL     1      -1.354  -0.906  -2.677  1.00  0.00    -0.364 OA
ATOM     16  H   UNL     1      -2.182  -1.196  -3.094  1.00  0.00     0.213 HD
ENDBRANCH   5  15
BRANCH   7  17
ATOM     17  C   UNL     1       1.886  -0.608   0.209  1.00  0.00     0.019 A 
ATOM     18  C   UNL     1       2.975  -0.986  -0.591  1.00  0.00     0.012 A 
ATOM     19  C   UNL     1       2.099  -0.237   1.543  1.00  0.00     0.050 A 
ATOM     20  C   UNL     1       4.270  -0.963  -0.073  1.00  0.00     0.001 A 
ATOM     21  C   UNL     1       3.401  -0.215   2.055  1.00  0.00     0.021 A 
ATOM     22  C   UNL     1       4.484  -0.572   1.247  1.00  0.00     0.002 A 
ATOM     23  Cl  UNL     1       0.814   0.156   2.629  1.00  0.00    -0.084 Cl
ENDBRANCH   7  17
TORSDOF 2
