MODEL 1
REMARK VINA RESULT:    -7.907      0.000      0.000
REMARK INTER + INTRA:          -8.725
REMARK INTER:                  -8.369
REMARK INTRA:                  -0.356
REMARK UNBOUND:                -0.356
REMARK SMILES CN1C(=O)CN=C(c2ccccc2)c2cc(Cl)ccc21
REMARK SMILES IDX 1 1 2 2 3 3 4 4 5 5 6 6 7 7 14 8 15 9 16 10 17 11 18 12
REMARK SMILES IDX 19 13 20 14 8 15 9 16 13 17 10 18 12 19 11 20
REMARK H PARENT
ROOT
ATOM      1  C   UNL     1     141.121  96.479 143.556  1.00  0.00     0.153 C 
ATOM      2  N   UNL     1     141.971  95.910 142.518  1.00  0.00    -0.313 N 
ATOM      3  C   UNL     1     141.613  94.647 142.031  1.00  0.00     0.248 C 
ATOM      4  O   UNL     1     140.591  94.061 142.401  1.00  0.00    -0.272 OA
ATOM      5  C   UNL     1     142.590  93.968 141.082  1.00  0.00     0.243 C 
ATOM      6  N   UNL     1     142.541  94.640 139.788  1.00  0.00    -0.274 NA
ATOM      7  C   UNL     1     143.035  95.830 139.706  1.00  0.00     0.075 C 
ATOM      8  C   UNL     1     143.714  96.534 140.834  1.00  0.00     0.026 A 
ATOM      9  C   UNL     1     144.929  97.182 140.539  1.00  0.00     0.033 A 
ATOM     10  C   UNL     1     145.561  97.956 141.504  1.00  0.00     0.041 A 
ATOM     11  Cl  UNL     1     147.035  98.758 141.132  1.00  0.00    -0.084 Cl
ATOM     12  C   UNL     1     144.999  98.092 142.766  1.00  0.00     0.023 A 
ATOM     13  C   UNL     1     143.807  97.427 143.071  1.00  0.00     0.028 A 
ATOM     14  C   UNL     1     143.154  96.613 142.125  1.00  0.00     0.053 A 
ENDROOT
BRANCH   7  15
ATOM     15  C   UNL     1     142.916  96.530 138.386  1.00  0.00     0.000 A 
ATOM     16  C   UNL     1     143.881  96.291 137.401  1.00  0.00     0.010 A 
ATOM     17  C   UNL     1     141.845  97.391 138.114  1.00  0.00     0.010 A 
ATOM     18  C   UNL     1     143.793  96.930 136.164  1.00  0.00     0.001 A 
ATOM     19  C   UNL     1     141.761  98.029 136.875  1.00  0.00     0.001 A 
ATOM     20  C   UNL     1     142.735  97.802 135.903  1.00  0.00     0.000 A 
ENDBRANCH   7  15
TORSDOF 1
ENDMDL
MODEL 2
REMARK VINA RESULT:    -7.145      2.796      5.373
REMARK INTER + INTRA:          -7.919
REMARK INTER:                  -8.231
REMARK INTRA:                   0.313
REMARK UNBOUND:                -0.356
REMARK SMILES CN1C(=O)CN=C(c2ccccc2)c2cc(Cl)ccc21
REMARK SMILES IDX 1 1 2 2 3 3 4 4 5 5 6 6 7 7 14 8 15 9 16 10 17 11 18 12
REMARK SMILES IDX 19 13 20 14 8 15 9 16 13 17 10 18 12 19 11 20
REMARK H PARENT
ROOT
ATOM      1  C   UNL     1     141.830  97.603 137.372  1.00  0.00     0.153 C 
ATOM      2  N   UNL     1     142.837  96.925 138.178  1.00  0.00    -0.313 N 
ATOM      3  C   UNL     1     143.994  96.499 137.515  1.00  0.00     0.248 C 
ATOM      4  O   UNL     1     144.198  96.739 136.321  1.00  0.00    -0.272 OA
ATOM      5  C   UNL     1     144.966  95.635 138.305  1.00  0.00     0.243 C 
ATOM      6  N   UNL     1     145.659  96.468 139.281  1.00  0.00    -0.274 NA
ATOM      7  C   UNL     1     144.981  96.912 140.286  1.00  0.00     0.075 C 
ATOM      8  C   UNL     1     143.552  96.569 140.549  1.00  0.00     0.026 A 
ATOM      9  C   UNL     1     143.217  96.212 141.870  1.00  0.00     0.033 A 
ATOM     10  C   UNL     1     141.891  95.993 142.220  1.00  0.00     0.041 A 
ATOM     11  Cl  UNL     1     141.488  95.574 143.837  1.00  0.00    -0.084 Cl
ATOM     12  C   UNL     1     140.888  96.124 141.269  1.00  0.00     0.023 A 
ATOM     13  C   UNL     1     141.220  96.452 139.950  1.00  0.00     0.028 A 
ATOM     14  C   UNL     1     142.557  96.654 139.554  1.00  0.00     0.053 A 
ENDROOT
BRANCH   7  15
ATOM     15  C   UNL     1     145.692  97.822 141.243  1.00  0.00     0.000 A 
ATOM     16  C   UNL     1     145.025  98.250 142.396  1.00  0.00     0.010 A 
ATOM     17  C   UNL     1     147.015  98.222 141.018  1.00  0.00     0.010 A 
ATOM     18  C   UNL     1     145.665  99.097 143.302  1.00  0.00     0.001 A 
ATOM     19  C   UNL     1     147.652  99.069 141.927  1.00  0.00     0.001 A 
ATOM     20  C   UNL     1     146.976  99.509 143.065  1.00  0.00     0.000 A 
ENDBRANCH   7  15
TORSDOF 1
ENDMDL
MODEL 3
REMARK VINA RESULT:    -6.688      3.324      6.118
REMARK INTER + INTRA:          -7.435
REMARK INTER:                  -7.448
REMARK INTRA:                   0.013
REMARK UNBOUND:                -0.356
REMARK SMILES CN1C(=O)CN=C(c2ccccc2)c2cc(Cl)ccc21
REMARK SMILES IDX 1 1 2 2 3 3 4 4 5 5 6 6 7 7 14 8 15 9 16 10 17 11 18 12
REMARK SMILES IDX 19 13 20 14 8 15 9 16 13 17 10 18 12 19 11 20
REMARK H PARENT
ROOT
ATOM      1  C   UNL     1     140.770  94.967 134.086  1.00  0.00     0.153 C 
ATOM      2  N   UNL     1     141.349  95.833 135.105  1.00  0.00    -0.313 N 
ATOM      3  C   UNL     1     140.624  96.982 135.444  1.00  0.00     0.248 C 
ATOM      4  O   UNL     1     139.514  97.228 134.964  1.00  0.00    -0.272 OA
ATOM      5  C   UNL     1     141.302  97.980 136.371  1.00  0.00     0.243 C 
ATOM      6  N   UNL     1     141.337  97.429 137.721  1.00  0.00    -0.274 NA
ATOM      7  C   UNL     1     142.127  96.435 137.948  1.00  0.00     0.075 C 
ATOM      8  C   UNL     1     143.059  95.857 136.933  1.00  0.00     0.026 A 
ATOM      9  C   UNL     1     144.377  95.599 137.355  1.00  0.00     0.033 A 
ATOM     10  C   UNL     1     145.269  94.955 136.507  1.00  0.00     0.041 A 
ATOM     11  Cl  UNL     1     146.872  94.627 137.035  1.00  0.00    -0.084 Cl
ATOM     12  C   UNL     1     144.866  94.566 135.237  1.00  0.00     0.023 A 
ATOM     13  C   UNL     1     143.566  94.845 134.805  1.00  0.00     0.028 A 
ATOM     14  C   UNL     1     142.644  95.521 135.628  1.00  0.00     0.053 A 
ENDROOT
BRANCH   7  15
ATOM     15  C   UNL     1     142.101  95.839 139.323  1.00  0.00     0.000 A 
ATOM     16  C   UNL     1     141.459  96.536 140.353  1.00  0.00     0.010 A 
ATOM     17  C   UNL     1     142.676  94.589 139.585  1.00  0.00     0.010 A 
ATOM     18  C   UNL     1     141.420  96.003 141.642  1.00  0.00     0.001 A 
ATOM     19  C   UNL     1     142.634  94.059 140.876  1.00  0.00     0.001 A 
ATOM     20  C   UNL     1     142.012  94.767 141.903  1.00  0.00     0.000 A 
ENDBRANCH   7  15
TORSDOF 1
ENDMDL
MODEL 4
REMARK VINA RESULT:    -6.482      3.206      6.109
REMARK INTER + INTRA:          -7.217
REMARK INTER:                  -6.848
REMARK INTRA:                  -0.369
REMARK UNBOUND:                -0.356
REMARK SMILES CN1C(=O)CN=C(c2ccccc2)c2cc(Cl)ccc21
REMARK SMILES IDX 1 1 2 2 3 3 4 4 5 5 6 6 7 7 14 8 15 9 16 10 17 11 18 12
REMARK SMILES IDX 19 13 20 14 8 15 9 16 13 17 10 18 12 19 11 20
REMARK H PARENT
ROOT
ATOM      1  C   UNL     1     143.766  97.206 134.470  1.00  0.00     0.153 C 
ATOM      2  N   UNL     1     142.989  96.496 135.478  1.00  0.00    -0.313 N 
ATOM      3  C   UNL     1     143.212  95.118 135.593  1.00  0.00     0.248 C 
ATOM      4  O   UNL     1     144.071  94.531 134.929  1.00  0.00    -0.272 OA
ATOM      5  C   UNL     1     142.282  94.341 136.513  1.00  0.00     0.243 C 
ATOM      6  N   UNL     1     142.611  94.655 137.899  1.00  0.00    -0.274 NA
ATOM      7  C   UNL     1     142.323  95.835 138.336  1.00  0.00     0.075 C 
ATOM      8  C   UNL     1     141.612  96.874 137.534  1.00  0.00     0.026 A 
ATOM      9  C   UNL     1     140.564  97.564 138.174  1.00  0.00     0.033 A 
ATOM     10  C   UNL     1     139.933  98.624 137.535  1.00  0.00     0.041 A 
ATOM     11  Cl  UNL     1     138.666  99.472 138.329  1.00  0.00    -0.084 Cl
ATOM     12  C   UNL     1     140.329  99.007 136.261  1.00  0.00     0.023 A 
ATOM     13  C   UNL     1     141.352  98.307 135.612  1.00  0.00     0.028 A 
ATOM     14  C   UNL     1     141.995  97.210 136.219  1.00  0.00     0.053 A 
ENDROOT
BRANCH   7  15
ATOM     15  C   UNL     1     142.729  96.162 139.741  1.00  0.00     0.000 A 
ATOM     16  C   UNL     1     141.897  95.772 140.797  1.00  0.00     0.010 A 
ATOM     17  C   UNL     1     143.935  96.819 140.015  1.00  0.00     0.010 A 
ATOM     18  C   UNL     1     142.252  96.064 142.115  1.00  0.00     0.001 A 
ATOM     19  C   UNL     1     144.287  97.110 141.335  1.00  0.00     0.001 A 
ATOM     20  C   UNL     1     143.445  96.737 142.382  1.00  0.00     0.000 A 
ENDBRANCH   7  15
TORSDOF 1
ENDMDL
MODEL 5
REMARK VINA RESULT:    -6.364      4.409      7.306
REMARK INTER + INTRA:          -7.093
REMARK INTER:                  -6.805
REMARK INTRA:                  -0.288
REMARK UNBOUND:                -0.356
REMARK SMILES CN1C(=O)CN=C(c2ccccc2)c2cc(Cl)ccc21
REMARK SMILES IDX 1 1 2 2 3 3 4 4 5 5 6 6 7 7 14 8 15 9 16 10 17 11 18 12
REMARK SMILES IDX 19 13 20 14 8 15 9 16 13 17 10 18 12 19 11 20
REMARK H PARENT
ROOT
ATOM      1  C   UNL     1     138.581  96.482 133.643  1.00  0.00     0.153 C 
ATOM      2  N   UNL     1     139.934  96.898 133.988  1.00  0.00    -0.313 N 
ATOM      3  C   UNL     1     140.155  98.273 134.135  1.00  0.00     0.248 C 
ATOM      4  O   UNL     1     139.243  99.101 134.050  1.00  0.00    -0.272 OA
ATOM      5  C   UNL     1     141.596  98.728 134.317  1.00  0.00     0.243 C 
ATOM      6  N   UNL     1     142.044  98.366 135.657  1.00  0.00    -0.274 NA
ATOM      7  C   UNL     1     142.235  97.116 135.914  1.00  0.00     0.075 C 
ATOM      8  C   UNL     1     142.092  96.023 134.906  1.00  0.00     0.026 A 
ATOM      9  C   UNL     1     143.115  95.056 134.869  1.00  0.00     0.033 A 
ATOM     10  C   UNL     1     142.998  93.946 134.042  1.00  0.00     0.041 A 
ATOM     11  Cl  UNL     1     144.242  92.761 134.014  1.00  0.00    -0.084 Cl
ATOM     12  C   UNL     1     141.872  93.786 133.245  1.00  0.00     0.023 A 
ATOM     13  C   UNL     1     140.867  94.758 133.260  1.00  0.00     0.028 A 
ATOM     14  C   UNL     1     140.966  95.910 134.065  1.00  0.00     0.053 A 
ENDROOT
BRANCH   7  15
ATOM     15  C   UNL     1     142.631  96.758 137.314  1.00  0.00     0.000 A 
ATOM     16  C   UNL     1     143.990  96.696 137.641  1.00  0.00     0.010 A 
ATOM     17  C   UNL     1     141.668  96.515 138.302  1.00  0.00     0.010 A 
ATOM     18  C   UNL     1     144.385  96.365 138.938  1.00  0.00     0.001 A 
ATOM     19  C   UNL     1     142.067  96.184 139.599  1.00  0.00     0.001 A 
ATOM     20  C   UNL     1     143.423  96.105 139.915  1.00  0.00     0.000 A 
ENDBRANCH   7  15
TORSDOF 1
ENDMDL
MODEL 6
REMARK VINA RESULT:    -6.358      2.892      4.429
REMARK INTER + INTRA:          -7.086
REMARK INTER:                  -7.072
REMARK INTRA:                  -0.014
REMARK UNBOUND:                -0.356
REMARK SMILES CN1C(=O)CN=C(c2ccccc2)c2cc(Cl)ccc21
REMARK SMILES IDX 1 1 2 2 3 3 4 4 5 5 6 6 7 7 14 8 15 9 16 10 17 11 18 12
REMARK SMILES IDX 19 13 20 14 8 15 9 16 13 17 10 18 12 19 11 20
REMARK H PARENT
ROOT
ATOM      1  C   UNL     1     141.080  95.588 141.161  1.00  0.00     0.153 C 
ATOM      2  N   UNL     1     142.095  96.166 140.291  1.00  0.00    -0.313 N 
ATOM      3  C   UNL     1     143.406  96.198 140.783  1.00  0.00     0.248 C 
ATOM      4  O   UNL     1     143.716  95.701 141.870  1.00  0.00    -0.272 OA
ATOM      5  C   UNL     1     144.436  96.959 139.961  1.00  0.00     0.243 C 
ATOM      6  N   UNL     1     144.751  96.189 138.762  1.00  0.00    -0.274 NA
ATOM      7  C   UNL     1     143.846  96.100 137.846  1.00  0.00     0.075 C 
ATOM      8  C   UNL     1     142.524  96.791 137.905  1.00  0.00     0.026 A 
ATOM      9  C   UNL     1     142.100  97.452 136.736  1.00  0.00     0.033 A 
ATOM     10  C   UNL     1     140.832  98.017 136.674  1.00  0.00     0.041 A 
ATOM     11  Cl  UNL     1     140.315  98.808 135.238  1.00  0.00    -0.084 Cl
ATOM     12  C   UNL     1     139.978  97.936 137.765  1.00  0.00     0.023 A 
ATOM     13  C   UNL     1     140.406  97.303 138.937  1.00  0.00     0.028 A 
ATOM     14  C   UNL     1     141.695  96.744 139.044  1.00  0.00     0.053 A 
ENDROOT
BRANCH   7  15
ATOM     15  C   UNL     1     144.163  95.250 136.652  1.00  0.00     0.000 A 
ATOM     16  C   UNL     1     145.491  94.873 136.419  1.00  0.00     0.010 A 
ATOM     17  C   UNL     1     143.154  94.805 135.789  1.00  0.00     0.010 A 
ATOM     18  C   UNL     1     145.812  94.083 135.315  1.00  0.00     0.001 A 
ATOM     19  C   UNL     1     143.479  94.014 134.686  1.00  0.00     0.001 A 
ATOM     20  C   UNL     1     144.806  93.657 134.446  1.00  0.00     0.000 A 
ENDBRANCH   7  15
TORSDOF 1
ENDMDL
MODEL 7
REMARK VINA RESULT:    -6.350      4.939      7.063
REMARK INTER + INTRA:          -7.078
REMARK INTER:                  -6.661
REMARK INTRA:                  -0.416
REMARK UNBOUND:                -0.356
REMARK SMILES CN1C(=O)CN=C(c2ccccc2)c2cc(Cl)ccc21
REMARK SMILES IDX 1 1 2 2 3 3 4 4 5 5 6 6 7 7 14 8 15 9 16 10 17 11 18 12
REMARK SMILES IDX 19 13 20 14 8 15 9 16 13 17 10 18 12 19 11 20
REMARK H PARENT
ROOT
ATOM      1  C   UNL     1     144.519  95.168 135.511  1.00  0.00     0.153 C 
ATOM      2  N   UNL     1     143.947  96.476 135.219  1.00  0.00    -0.313 N 
ATOM      3  C   UNL     1     144.632  97.273 134.293  1.00  0.00     0.248 C 
ATOM      4  O   UNL     1     145.634  96.874 133.692  1.00  0.00    -0.272 OA
ATOM      5  C   UNL     1     144.146  98.704 134.118  1.00  0.00     0.243 C 
ATOM      6  N   UNL     1     142.882  98.692 133.389  1.00  0.00    -0.274 NA
ATOM      7  C   UNL     1     141.838  98.238 133.997  1.00  0.00     0.075 C 
ATOM      8  C   UNL     1     141.827  97.791 135.421  1.00  0.00     0.026 A 
ATOM      9  C   UNL     1     140.761  98.244 136.222  1.00  0.00     0.033 A 
ATOM     10  C   UNL     1     140.616  97.779 137.523  1.00  0.00     0.041 A 
ATOM     11  Cl  UNL     1     139.302  98.323 138.488  1.00  0.00    -0.084 Cl
ATOM     12  C   UNL     1     141.524  96.866 138.042  1.00  0.00     0.023 A 
ATOM     13  C   UNL     1     142.600  96.435 137.259  1.00  0.00     0.028 A 
ATOM     14  C   UNL     1     142.793  96.907 135.946  1.00  0.00     0.053 A 
ENDROOT
BRANCH   7  15
ATOM     15  C   UNL     1     140.564  98.170 133.211  1.00  0.00     0.000 A 
ATOM     16  C   UNL     1     140.162  96.942 132.672  1.00  0.00     0.010 A 
ATOM     17  C   UNL     1     139.758  99.302 133.034  1.00  0.00     0.010 A 
ATOM     18  C   UNL     1     138.979  96.852 131.937  1.00  0.00     0.001 A 
ATOM     19  C   UNL     1     138.575  99.208 132.297  1.00  0.00     0.001 A 
ATOM     20  C   UNL     1     138.189  97.987 131.746  1.00  0.00     0.000 A 
ENDBRANCH   7  15
TORSDOF 1
ENDMDL
MODEL 8
REMARK VINA RESULT:    -6.114      4.575      7.733
REMARK INTER + INTRA:          -6.828
REMARK INTER:                  -6.349
REMARK INTRA:                  -0.479
REMARK UNBOUND:                -0.356
REMARK SMILES CN1C(=O)CN=C(c2ccccc2)c2cc(Cl)ccc21
REMARK SMILES IDX 1 1 2 2 3 3 4 4 5 5 6 6 7 7 14 8 15 9 16 10 17 11 18 12
REMARK SMILES IDX 19 13 20 14 8 15 9 16 13 17 10 18 12 19 11 20
REMARK H PARENT
ROOT
ATOM      1  C   UNL     1     141.071  95.162 131.193  1.00  0.00     0.153 C 
ATOM      2  N   UNL     1     140.742  96.071 132.283  1.00  0.00    -0.313 N 
ATOM      3  C   UNL     1     139.401  96.113 132.687  1.00  0.00     0.248 C 
ATOM      4  O   UNL     1     138.541  95.373 132.201  1.00  0.00    -0.272 OA
ATOM      5  C   UNL     1     139.016  97.184 133.697  1.00  0.00     0.243 C 
ATOM      6  N   UNL     1     139.548  96.819 135.005  1.00  0.00    -0.274 NA
ATOM      7  C   UNL     1     140.825  96.884 135.178  1.00  0.00     0.075 C 
ATOM      8  C   UNL     1     141.786  97.377 134.146  1.00  0.00     0.026 A 
ATOM      9  C   UNL     1     142.773  98.284 134.578  1.00  0.00     0.033 A 
ATOM     10  C   UNL     1     143.772  98.696 133.706  1.00  0.00     0.041 A 
ATOM     11  Cl  UNL     1     144.984  99.790 134.245  1.00  0.00    -0.084 Cl
ATOM     12  C   UNL     1     143.802  98.219 132.402  1.00  0.00     0.023 A 
ATOM     13  C   UNL     1     142.807  97.339 131.962  1.00  0.00     0.028 A 
ATOM     14  C   UNL     1     141.763  96.922 132.812  1.00  0.00     0.053 A 
ENDROOT
BRANCH   7  15
ATOM     15  C   UNL     1     141.360  96.441 136.506  1.00  0.00     0.000 A 
ATOM     16  C   UNL     1     141.058  97.195 137.646  1.00  0.00     0.010 A 
ATOM     17  C   UNL     1     142.126  95.275 136.629  1.00  0.00     0.010 A 
ATOM     18  C   UNL     1     141.543  96.804 138.895  1.00  0.00     0.001 A 
ATOM     19  C   UNL     1     142.609  94.886 137.880  1.00  0.00     0.001 A 
ATOM     20  C   UNL     1     142.323  95.652 139.010  1.00  0.00     0.000 A 
ENDBRANCH   7  15
TORSDOF 1
ENDMDL
MODEL 9
REMARK VINA RESULT:    -5.937      4.405      6.146
REMARK INTER + INTRA:          -6.640
REMARK INTER:                  -6.160
REMARK INTRA:                  -0.480
REMARK UNBOUND:                -0.356
REMARK SMILES CN1C(=O)CN=C(c2ccccc2)c2cc(Cl)ccc21
REMARK SMILES IDX 1 1 2 2 3 3 4 4 5 5 6 6 7 7 14 8 15 9 16 10 17 11 18 12
REMARK SMILES IDX 19 13 20 14 8 15 9 16 13 17 10 18 12 19 11 20
REMARK H PARENT
ROOT
ATOM      1  C   UNL     1     140.093  98.991 135.527  1.00  0.00     0.153 C 
ATOM      2  N   UNL     1     140.304  97.553 135.419  1.00  0.00    -0.313 N 
ATOM      3  C   UNL     1     139.680  96.902 134.348  1.00  0.00     0.248 C 
ATOM      4  O   UNL     1     139.036  97.511 133.489  1.00  0.00    -0.272 OA
ATOM      5  C   UNL     1     139.746  95.381 134.329  1.00  0.00     0.243 C 
ATOM      6  N   UNL     1     141.100  94.968 133.979  1.00  0.00    -0.274 NA
ATOM      7  C   UNL     1     142.035  95.161 134.847  1.00  0.00     0.075 C 
ATOM      8  C   UNL     1     141.806  95.716 136.214  1.00  0.00     0.026 A 
ATOM      9  C   UNL     1     142.441  95.054 137.283  1.00  0.00     0.033 A 
ATOM     10  C   UNL     1     142.373  95.577 138.569  1.00  0.00     0.041 A 
ATOM     11  Cl  UNL     1     143.165  94.774 139.865  1.00  0.00    -0.084 Cl
ATOM     12  C   UNL     1     141.675  96.754 138.806  1.00  0.00     0.023 A 
ATOM     13  C   UNL     1     141.021  97.399 137.752  1.00  0.00     0.028 A 
ATOM     14  C   UNL     1     141.046  96.881 136.442  1.00  0.00     0.053 A 
ENDROOT
BRANCH   7  15
ATOM     15  C   UNL     1     143.431  94.791 134.444  1.00  0.00     0.000 A 
ATOM     16  C   UNL     1     143.741  93.444 134.225  1.00  0.00     0.010 A 
ATOM     17  C   UNL     1     144.415  95.769 134.253  1.00  0.00     0.010 A 
ATOM     18  C   UNL     1     145.032  93.074 133.848  1.00  0.00     0.001 A 
ATOM     19  C   UNL     1     145.706  95.395 133.876  1.00  0.00     0.001 A 
ATOM     20  C   UNL     1     146.016  94.050 133.679  1.00  0.00     0.000 A 
ENDBRANCH   7  15
TORSDOF 1
ENDMDL
