MODEL 1
REMARK VINA RESULT:    -9.687      0.000      0.000
REMARK INTER + INTRA:         -11.859
REMARK INTER:                 -11.386
REMARK INTRA:                  -0.472
REMARK UNBOUND:                -0.472
REMARK SMILES CN1CCN(C(=O)OC2c3nccnc3C(=O)N2c2ccc(Cl)cn2)CC1
REMARK SMILES IDX 9 1 10 2 11 3 12 4 13 5 14 6 15 7 16 8 17 9 18 10 8 11 6 12
REMARK SMILES IDX 2 13 3 14 27 15 4 16 26 17 5 18 7 19 1 20 19 21 20 22 25 23
REMARK SMILES IDX 21 24 24 25 22 26 23 27
REMARK H PARENT
ROOT
ATOM      1  C   UNL     1     118.338 158.134 108.805  1.00  0.00     0.338 C 
ATOM      2  C   UNL     1     117.435 157.058 108.255  1.00  0.00     0.134 A 
ATOM      3  N   UNL     1     116.243 156.643 108.743  1.00  0.00    -0.251 NA
ATOM      4  C   UNL     1     115.678 155.637 108.027  1.00  0.00     0.131 A 
ATOM      5  C   UNL     1     116.276 155.082 106.894  1.00  0.00     0.132 A 
ATOM      6  N   UNL     1     117.472 155.500 106.410  1.00  0.00    -0.247 NA
ATOM      7  C   UNL     1     118.014 156.498 107.137  1.00  0.00     0.156 A 
ATOM      8  C   UNL     1     119.291 157.174 106.868  1.00  0.00     0.283 C 
ATOM      9  O   UNL     1     120.020 156.896 105.933  1.00  0.00    -0.267 OA
ATOM     10  N   UNL     1     119.439 158.148 107.847  1.00  0.00    -0.248 N 
ENDROOT
BRANCH   1  11
ATOM     11  O   UNL     1     118.836 157.710 110.070  1.00  0.00    -0.419 OA
BRANCH  11  12
ATOM     12  C   UNL     1     118.297 158.368 111.126  1.00  0.00     0.412 C 
ATOM     13  N   UNL     1     117.101 155.677 114.317  1.00  0.00    -0.303 NA
ATOM     14  C   UNL     1     116.879 155.343 112.895  1.00  0.00     0.106 C 
ATOM     15  C   UNL     1     117.513 157.083 114.513  1.00  0.00     0.106 C 
ATOM     16  C   UNL     1     117.864 156.045 111.945  1.00  0.00     0.138 C 
ATOM     17  C   UNL     1     117.247 158.023 113.322  1.00  0.00     0.138 C 
ATOM     18  N   UNL     1     117.811 157.501 112.082  1.00  0.00    -0.306 N 
ATOM     19  O   UNL     1     118.250 159.588 111.227  1.00  0.00    -0.224 OA
ATOM     20  C   UNL     1     115.929 155.335 115.118  1.00  0.00     0.105 C 
ENDBRANCH  11  12
ENDBRANCH   1  11
BRANCH  10  21
ATOM     21  C   UNL     1     120.465 159.101 107.965  1.00  0.00     0.138 A 
ATOM     22  C   UNL     1     121.667 158.994 107.270  1.00  0.00     0.049 A 
ATOM     23  N   UNL     1     120.226 160.149 108.790  1.00  0.00    -0.237 NA
ATOM     24  C   UNL     1     122.648 159.977 107.427  1.00  0.00     0.026 A 
ATOM     25  C   UNL     1     121.192 161.092 108.929  1.00  0.00     0.134 A 
ATOM     26  C   UNL     1     122.407 161.048 108.272  1.00  0.00     0.059 A 
ATOM     27  Cl  UNL     1     123.582 162.275 108.496  1.00  0.00    -0.083 Cl
ENDBRANCH  10  21
TORSDOF 3
ENDMDL
MODEL 2
REMARK VINA RESULT:    -8.619      3.064      5.493
REMARK INTER + INTRA:         -10.603
REMARK INTER:                 -10.327
REMARK INTRA:                  -0.276
REMARK UNBOUND:                -0.472
REMARK SMILES CN1CCN(C(=O)OC2c3nccnc3C(=O)N2c2ccc(Cl)cn2)CC1
REMARK SMILES IDX 9 1 10 2 11 3 12 4 13 5 14 6 15 7 16 8 17 9 18 10 8 11 6 12
REMARK SMILES IDX 2 13 3 14 27 15 4 16 26 17 5 18 7 19 1 20 19 21 20 22 25 23
REMARK SMILES IDX 21 24 24 25 22 26 23 27
REMARK H PARENT
ROOT
ATOM      1  C   UNL     1     119.401 158.157 108.809  1.00  0.00     0.338 C 
ATOM      2  C   UNL     1     120.531 159.073 108.406  1.00  0.00     0.134 A 
ATOM      3  N   UNL     1     121.424 159.695 109.210  1.00  0.00    -0.251 NA
ATOM      4  C   UNL     1     122.315 160.471 108.541  1.00  0.00     0.131 A 
ATOM      5  C   UNL     1     122.306 160.615 107.153  1.00  0.00     0.132 A 
ATOM      6  N   UNL     1     121.406 159.992 106.352  1.00  0.00    -0.247 NA
ATOM      7  C   UNL     1     120.532 159.228 107.037  1.00  0.00     0.156 A 
ATOM      8  C   UNL     1     119.448 158.420 106.461  1.00  0.00     0.283 C 
ATOM      9  O   UNL     1     119.213 158.352 105.268  1.00  0.00    -0.267 OA
ATOM     10  N   UNL     1     118.821 157.781 107.524  1.00  0.00    -0.248 N 
ENDROOT
BRANCH   1  11
ATOM     11  O   UNL     1     118.442 158.912 109.542  1.00  0.00    -0.419 OA
BRANCH  11  12
ATOM     12  C   UNL     1     118.180 158.422 110.780  1.00  0.00     0.412 C 
ATOM     13  N   UNL     1     115.583 161.034 113.078  1.00  0.00    -0.303 NA
ATOM     14  C   UNL     1     116.662 161.569 112.223  1.00  0.00     0.106 C 
ATOM     15  C   UNL     1     115.668 159.568 113.252  1.00  0.00     0.106 C 
ATOM     16  C   UNL     1     117.042 160.630 111.066  1.00  0.00     0.138 C 
ATOM     17  C   UNL     1     117.025 158.937 112.888  1.00  0.00     0.138 C 
ATOM     18  N   UNL     1     117.455 159.311 111.545  1.00  0.00    -0.306 N 
ATOM     19  O   UNL     1     118.539 157.319 111.174  1.00  0.00    -0.224 OA
ATOM     20  C   UNL     1     115.542 161.734 114.359  1.00  0.00     0.105 C 
ENDBRANCH  11  12
ENDBRANCH   1  11
BRANCH  10  21
ATOM     21  C   UNL     1     117.776 156.843 107.470  1.00  0.00     0.138 A 
ATOM     22  C   UNL     1     117.829 155.714 106.655  1.00  0.00     0.049 A 
ATOM     23  N   UNL     1     116.705 157.084 108.263  1.00  0.00    -0.237 NA
ATOM     24  C   UNL     1     116.758 154.815 106.648  1.00  0.00     0.026 A 
ATOM     25  C   UNL     1     115.676 156.199 108.240  1.00  0.00     0.134 A 
ATOM     26  C   UNL     1     115.659 155.061 107.456  1.00  0.00     0.059 A 
ATOM     27  Cl  UNL     1     114.324 153.987 107.478  1.00  0.00    -0.083 Cl
ENDBRANCH  10  21
TORSDOF 3
ENDMDL
MODEL 3
REMARK VINA RESULT:    -8.177      3.866      6.785
REMARK INTER + INTRA:         -10.083
REMARK INTER:                  -9.441
REMARK INTRA:                  -0.642
REMARK UNBOUND:                -0.472
REMARK SMILES CN1CCN(C(=O)OC2c3nccnc3C(=O)N2c2ccc(Cl)cn2)CC1
REMARK SMILES IDX 9 1 10 2 11 3 12 4 13 5 14 6 15 7 16 8 17 9 18 10 8 11 6 12
REMARK SMILES IDX 2 13 3 14 27 15 4 16 26 17 5 18 7 19 1 20 19 21 20 22 25 23
REMARK SMILES IDX 21 24 24 25 22 26 23 27
REMARK H PARENT
ROOT
ATOM      1  C   UNL     1     117.070 157.472 114.291  1.00  0.00     0.338 C 
ATOM      2  C   UNL     1     116.485 158.429 115.299  1.00  0.00     0.134 A 
ATOM      3  N   UNL     1     116.453 158.301 116.646  1.00  0.00    -0.251 NA
ATOM      4  C   UNL     1     115.837 159.332 117.280  1.00  0.00     0.131 A 
ATOM      5  C   UNL     1     115.286 160.421 116.602  1.00  0.00     0.132 A 
ATOM      6  N   UNL     1     115.319 160.543 115.252  1.00  0.00    -0.247 NA
ATOM      7  C   UNL     1     115.933 159.509 114.644  1.00  0.00     0.156 A 
ATOM      8  C   UNL     1     116.142 159.350 113.198  1.00  0.00     0.283 C 
ATOM      9  O   UNL     1     115.769 160.158 112.367  1.00  0.00    -0.267 OA
ATOM     10  N   UNL     1     116.837 158.160 113.025  1.00  0.00    -0.248 N 
ENDROOT
BRANCH   1  11
ATOM     11  O   UNL     1     116.308 156.269 114.307  1.00  0.00    -0.419 OA
BRANCH  11  12
ATOM     12  C   UNL     1     117.030 155.160 114.600  1.00  0.00     0.412 C 
ATOM     13  N   UNL     1     115.719 153.256 118.276  1.00  0.00    -0.303 NA
ATOM     14  C   UNL     1     115.809 154.725 118.152  1.00  0.00     0.106 C 
ATOM     15  C   UNL     1     116.355 152.549 117.143  1.00  0.00     0.106 C 
ATOM     16  C   UNL     1     115.676 155.221 116.702  1.00  0.00     0.138 C 
ATOM     17  C   UNL     1     117.317 153.398 116.291  1.00  0.00     0.138 C 
ATOM     18  N   UNL     1     116.689 154.630 115.827  1.00  0.00    -0.306 N 
ATOM     19  O   UNL     1     117.883 154.678 113.865  1.00  0.00    -0.224 OA
ATOM     20  C   UNL     1     116.249 152.811 119.562  1.00  0.00     0.105 C 
ENDBRANCH  11  12
ENDBRANCH   1  11
BRANCH  10  21
ATOM     21  C   UNL     1     117.331 157.618 111.827  1.00  0.00     0.138 A 
ATOM     22  C   UNL     1     118.508 158.069 111.233  1.00  0.00     0.049 A 
ATOM     23  N   UNL     1     116.608 156.616 111.271  1.00  0.00    -0.237 NA
ATOM     24  C   UNL     1     118.951 157.486 110.042  1.00  0.00     0.026 A 
ATOM     25  C   UNL     1     117.055 156.065 110.114  1.00  0.00     0.134 A 
ATOM     26  C   UNL     1     118.211 156.464 109.470  1.00  0.00     0.059 A 
ATOM     27  Cl  UNL     1     118.715 155.722 108.010  1.00  0.00    -0.083 Cl
ENDBRANCH  10  21
TORSDOF 3
ENDMDL
MODEL 4
REMARK VINA RESULT:    -7.889      3.951      6.890
REMARK INTER + INTRA:          -9.745
REMARK INTER:                  -8.903
REMARK INTRA:                  -0.842
REMARK UNBOUND:                -0.472
REMARK SMILES CN1CCN(C(=O)OC2c3nccnc3C(=O)N2c2ccc(Cl)cn2)CC1
REMARK SMILES IDX 9 1 10 2 11 3 12 4 13 5 14 6 15 7 16 8 17 9 18 10 8 11 6 12
REMARK SMILES IDX 2 13 3 14 27 15 4 16 26 17 5 18 7 19 1 20 19 21 20 22 25 23
REMARK SMILES IDX 21 24 24 25 22 26 23 27
REMARK H PARENT
ROOT
ATOM      1  C   UNL     1     116.211 156.353 114.320  1.00  0.00     0.338 C 
ATOM      2  C   UNL     1     116.224 155.410 115.498  1.00  0.00     0.134 A 
ATOM      3  N   UNL     1     115.545 155.527 116.663  1.00  0.00    -0.251 NA
ATOM      4  C   UNL     1     115.782 154.516 117.539  1.00  0.00     0.131 A 
ATOM      5  C   UNL     1     116.649 153.457 117.260  1.00  0.00     0.132 A 
ATOM      6  N   UNL     1     117.329 153.347 116.092  1.00  0.00    -0.247 NA
ATOM      7  C   UNL     1     117.079 154.361 115.240  1.00  0.00     0.156 A 
ATOM      8  C   UNL     1     117.647 154.526 113.895  1.00  0.00     0.283 C 
ATOM      9  O   UNL     1     118.430 153.742 113.390  1.00  0.00    -0.267 OA
ATOM     10  N   UNL     1     117.097 155.688 113.370  1.00  0.00    -0.248 N 
ENDROOT
BRANCH   1  11
ATOM     11  O   UNL     1     116.804 157.585 114.715  1.00  0.00    -0.419 OA
BRANCH  11  12
ATOM     12  C   UNL     1     116.088 158.682 114.363  1.00  0.00     0.412 C 
ATOM     13  N   UNL     1     114.793 160.987 117.807  1.00  0.00    -0.303 NA
ATOM     14  C   UNL     1     114.767 159.511 117.807  1.00  0.00     0.106 C 
ATOM     15  C   UNL     1     115.045 161.552 116.464  1.00  0.00     0.106 C 
ATOM     16  C   UNL     1     115.784 158.886 116.837  1.00  0.00     0.138 C 
ATOM     17  C   UNL     1     114.830 160.581 115.288  1.00  0.00     0.138 C 
ATOM     18  N   UNL     1     115.579 159.342 115.462  1.00  0.00    -0.306 N 
ATOM     19  O   UNL     1     115.914 159.051 113.208  1.00  0.00    -0.224 OA
ATOM     20  C   UNL     1     113.574 161.526 118.405  1.00  0.00     0.105 C 
ENDBRANCH  11  12
ENDBRANCH   1  11
BRANCH  10  21
ATOM     21  C   UNL     1     117.277 156.221 112.082  1.00  0.00     0.138 A 
ATOM     22  C   UNL     1     118.376 157.008 111.748  1.00  0.00     0.049 A 
ATOM     23  N   UNL     1     116.326 155.923 111.165  1.00  0.00    -0.237 NA
ATOM     24  C   UNL     1     118.501 157.506 110.447  1.00  0.00     0.026 A 
ATOM     25  C   UNL     1     116.466 156.417 109.909  1.00  0.00     0.134 A 
ATOM     26  C   UNL     1     117.528 157.206 109.508  1.00  0.00     0.059 A 
ATOM     27  Cl  UNL     1     117.640 157.797 107.904  1.00  0.00    -0.083 Cl
ENDBRANCH  10  21
TORSDOF 3
ENDMDL
MODEL 5
REMARK VINA RESULT:    -7.866      4.406      7.263
REMARK INTER + INTRA:          -9.717
REMARK INTER:                  -8.909
REMARK INTRA:                  -0.808
REMARK UNBOUND:                -0.472
REMARK SMILES CN1CCN(C(=O)OC2c3nccnc3C(=O)N2c2ccc(Cl)cn2)CC1
REMARK SMILES IDX 9 1 10 2 11 3 12 4 13 5 14 6 15 7 16 8 17 9 18 10 8 11 6 12
REMARK SMILES IDX 2 13 3 14 27 15 4 16 26 17 5 18 7 19 1 20 19 21 20 22 25 23
REMARK SMILES IDX 21 24 24 25 22 26 23 27
REMARK H PARENT
ROOT
ATOM      1  C   UNL     1     116.705 157.390 113.073  1.00  0.00     0.338 C 
ATOM      2  C   UNL     1     117.530 157.746 111.862  1.00  0.00     0.134 A 
ATOM      3  N   UNL     1     118.212 156.910 111.045  1.00  0.00    -0.251 NA
ATOM      4  C   UNL     1     118.876 157.543 110.044  1.00  0.00     0.131 A 
ATOM      5  C   UNL     1     118.858 158.930 109.878  1.00  0.00     0.132 A 
ATOM      6  N   UNL     1     118.176 159.763 110.702  1.00  0.00    -0.247 NA
ATOM      7  C   UNL     1     117.526 159.113 111.688  1.00  0.00     0.156 A 
ATOM      8  C   UNL     1     116.692 159.727 112.730  1.00  0.00     0.283 C 
ATOM      9  O   UNL     1     116.494 160.925 112.821  1.00  0.00    -0.267 OA
ATOM     10  N   UNL     1     116.201 158.688 113.510  1.00  0.00    -0.248 N 
ENDROOT
BRANCH   1  11
ATOM     11  O   UNL     1     117.570 156.871 114.079  1.00  0.00    -0.419 OA
BRANCH  11  12
ATOM     12  C   UNL     1     117.539 155.520 114.193  1.00  0.00     0.412 C 
ATOM     13  N   UNL     1     115.688 154.215 117.897  1.00  0.00    -0.303 NA
ATOM     14  C   UNL     1     116.599 155.376 117.852  1.00  0.00     0.106 C 
ATOM     15  C   UNL     1     115.698 153.434 116.641  1.00  0.00     0.106 C 
ATOM     16  C   UNL     1     116.655 156.051 116.471  1.00  0.00     0.138 C 
ATOM     17  C   UNL     1     116.897 153.695 115.710  1.00  0.00     0.138 C 
ATOM     18  N   UNL     1     117.060 155.116 115.421  1.00  0.00    -0.306 N 
ATOM     19  O   UNL     1     117.889 154.745 113.311  1.00  0.00    -0.224 OA
ATOM     20  C   UNL     1     115.970 153.380 119.061  1.00  0.00     0.105 C 
ENDBRANCH  11  12
ENDBRANCH   1  11
BRANCH  10  21
ATOM     21  C   UNL     1     115.298 158.768 114.583  1.00  0.00     0.138 A 
ATOM     22  C   UNL     1     114.125 158.019 114.629  1.00  0.00     0.049 A 
ATOM     23  N   UNL     1     115.627 159.612 115.591  1.00  0.00    -0.237 NA
ATOM     24  C   UNL     1     113.267 158.140 115.727  1.00  0.00     0.026 A 
ATOM     25  C   UNL     1     114.781 159.716 116.646  1.00  0.00     0.134 A 
ATOM     26  C   UNL     1     113.600 159.005 116.756  1.00  0.00     0.059 A 
ATOM     27  Cl  UNL     1     112.578 159.187 118.120  1.00  0.00    -0.083 Cl
ENDBRANCH  10  21
TORSDOF 3
ENDMDL
MODEL 6
REMARK VINA RESULT:    -7.855      4.240      6.549
REMARK INTER + INTRA:          -9.705
REMARK INTER:                  -8.934
REMARK INTRA:                  -0.771
REMARK UNBOUND:                -0.472
REMARK SMILES CN1CCN(C(=O)OC2c3nccnc3C(=O)N2c2ccc(Cl)cn2)CC1
REMARK SMILES IDX 9 1 10 2 11 3 12 4 13 5 14 6 15 7 16 8 17 9 18 10 8 11 6 12
REMARK SMILES IDX 2 13 3 14 27 15 4 16 26 17 5 18 7 19 1 20 19 21 20 22 25 23
REMARK SMILES IDX 21 24 24 25 22 26 23 27
REMARK H PARENT
ROOT
ATOM      1  C   UNL     1     116.229 159.075 113.003  1.00  0.00     0.338 C 
ATOM      2  C   UNL     1     117.146 158.530 111.936  1.00  0.00     0.134 A 
ATOM      3  N   UNL     1     117.446 157.236 111.678  1.00  0.00    -0.251 NA
ATOM      4  C   UNL     1     118.323 157.070 110.655  1.00  0.00     0.131 A 
ATOM      5  C   UNL     1     118.865 158.138 109.938  1.00  0.00     0.132 A 
ATOM      6  N   UNL     1     118.564 159.434 110.202  1.00  0.00    -0.247 NA
ATOM      7  C   UNL     1     117.693 159.574 111.222  1.00  0.00     0.156 A 
ATOM      8  C   UNL     1     117.161 160.842 111.741  1.00  0.00     0.283 C 
ATOM      9  O   UNL     1     117.459 161.935 111.296  1.00  0.00    -0.267 OA
ATOM     10  N   UNL     1     116.283 160.514 112.767  1.00  0.00    -0.248 N 
ENDROOT
BRANCH   1  11
ATOM     11  O   UNL     1     116.798 158.798 114.278  1.00  0.00    -0.419 OA
BRANCH  11  12
ATOM     12  C   UNL     1     115.920 158.290 115.179  1.00  0.00     0.412 C 
ATOM     13  N   UNL     1     117.003 154.290 116.474  1.00  0.00    -0.303 NA
ATOM     14  C   UNL     1     117.138 154.714 115.065  1.00  0.00     0.106 C 
ATOM     15  C   UNL     1     116.241 155.261 117.289  1.00  0.00     0.106 C 
ATOM     16  C   UNL     1     117.314 156.233 114.902  1.00  0.00     0.138 C 
ATOM     17  C   UNL     1     115.403 156.278 116.493  1.00  0.00     0.138 C 
ATOM     18  N   UNL     1     116.203 156.978 115.494  1.00  0.00    -0.306 N 
ATOM     19  O   UNL     1     114.988 158.920 115.662  1.00  0.00    -0.224 OA
ATOM     20  C   UNL     1     116.440 152.945 116.559  1.00  0.00     0.105 C 
ENDBRANCH  11  12
ENDBRANCH   1  11
BRANCH  10  21
ATOM     21  C   UNL     1     115.473 161.382 113.517  1.00  0.00     0.138 A 
ATOM     22  C   UNL     1     114.082 161.315 113.490  1.00  0.00     0.049 A 
ATOM     23  N   UNL     1     116.113 162.294 114.288  1.00  0.00    -0.237 NA
ATOM     24  C   UNL     1     113.330 162.205 114.263  1.00  0.00     0.026 A 
ATOM     25  C   UNL     1     115.365 163.149 115.029  1.00  0.00     0.134 A 
ATOM     26  C   UNL     1     113.983 163.141 115.049  1.00  0.00     0.059 A 
ATOM     27  Cl  UNL     1     113.101 164.253 116.010  1.00  0.00    -0.083 Cl
ENDBRANCH  10  21
TORSDOF 3
ENDMDL
MODEL 7
REMARK VINA RESULT:    -7.841      3.768      6.167
REMARK INTER + INTRA:          -9.689
REMARK INTER:                  -8.787
REMARK INTRA:                  -0.902
REMARK UNBOUND:                -0.472
REMARK SMILES CN1CCN(C(=O)OC2c3nccnc3C(=O)N2c2ccc(Cl)cn2)CC1
REMARK SMILES IDX 9 1 10 2 11 3 12 4 13 5 14 6 15 7 16 8 17 9 18 10 8 11 6 12
REMARK SMILES IDX 2 13 3 14 27 15 4 16 26 17 5 18 7 19 1 20 19 21 20 22 25 23
REMARK SMILES IDX 21 24 24 25 22 26 23 27
REMARK H PARENT
ROOT
ATOM      1  C   UNL     1     118.191 158.615 111.123  1.00  0.00     0.338 C 
ATOM      2  C   UNL     1     118.793 158.316 109.772  1.00  0.00     0.134 A 
ATOM      3  N   UNL     1     119.422 159.173 108.934  1.00  0.00    -0.251 NA
ATOM      4  C   UNL     1     119.839 158.599 107.776  1.00  0.00     0.131 A 
ATOM      5  C   UNL     1     119.635 157.250 107.480  1.00  0.00     0.132 A 
ATOM      6  N   UNL     1     119.001 156.397 108.321  1.00  0.00    -0.247 NA
ATOM      7  C   UNL     1     118.594 156.989 109.463  1.00  0.00     0.156 A 
ATOM      8  C   UNL     1     117.893 156.336 110.577  1.00  0.00     0.283 C 
ATOM      9  O   UNL     1     117.592 155.156 110.590  1.00  0.00    -0.267 OA
ATOM     10  N   UNL     1     117.696 157.310 111.548  1.00  0.00    -0.248 N 
ENDROOT
BRANCH   1  11
ATOM     11  O   UNL     1     117.082 159.491 110.945  1.00  0.00    -0.419 OA
BRANCH  11  12
ATOM     12  C   UNL     1     117.334 160.780 111.285  1.00  0.00     0.412 C 
ATOM     13  N   UNL     1     114.848 162.138 114.575  1.00  0.00    -0.303 NA
ATOM     14  C   UNL     1     114.310 161.285 113.497  1.00  0.00     0.106 C 
ATOM     15  C   UNL     1     116.195 162.664 114.267  1.00  0.00     0.106 C 
ATOM     16  C   UNL     1     115.384 160.424 112.810  1.00  0.00     0.138 C 
ATOM     17  C   UNL     1     116.610 162.588 112.785  1.00  0.00     0.138 C 
ATOM     18  N   UNL     1     116.460 161.240 112.247  1.00  0.00    -0.306 N 
ATOM     19  O   UNL     1     118.232 161.457 110.801  1.00  0.00    -0.224 OA
ATOM     20  C   UNL     1     113.908 163.206 114.908  1.00  0.00     0.105 C 
ENDBRANCH  11  12
ENDBRANCH   1  11
BRANCH  10  21
ATOM     21  C   UNL     1     117.135 157.151 112.826  1.00  0.00     0.138 A 
ATOM     22  C   UNL     1     117.845 157.427 113.992  1.00  0.00     0.049 A 
ATOM     23  N   UNL     1     115.852 156.720 112.876  1.00  0.00    -0.237 NA
ATOM     24  C   UNL     1     117.231 157.253 115.236  1.00  0.00     0.026 A 
ATOM     25  C   UNL     1     115.274 156.556 114.093  1.00  0.00     0.134 A 
ATOM     26  C   UNL     1     115.920 156.809 115.289  1.00  0.00     0.059 A 
ATOM     27  Cl  UNL     1     115.127 156.579 116.791  1.00  0.00    -0.083 Cl
ENDBRANCH  10  21
TORSDOF 3
ENDMDL
MODEL 8
REMARK VINA RESULT:    -7.677      2.879      4.326
REMARK INTER + INTRA:          -9.496
REMARK INTER:                  -9.404
REMARK INTRA:                  -0.092
REMARK UNBOUND:                -0.472
REMARK SMILES CN1CCN(C(=O)OC2c3nccnc3C(=O)N2c2ccc(Cl)cn2)CC1
REMARK SMILES IDX 9 1 10 2 11 3 12 4 13 5 14 6 15 7 16 8 17 9 18 10 8 11 6 12
REMARK SMILES IDX 2 13 3 14 27 15 4 16 26 17 5 18 7 19 1 20 19 21 20 22 25 23
REMARK SMILES IDX 21 24 24 25 22 26 23 27
REMARK H PARENT
ROOT
ATOM      1  C   UNL     1     117.867 158.176 109.735  1.00  0.00     0.338 C 
ATOM      2  C   UNL     1     118.832 157.669 108.692  1.00  0.00     0.134 A 
ATOM      3  N   UNL     1     118.766 156.515 107.989  1.00  0.00    -0.251 NA
ATOM      4  C   UNL     1     119.803 156.334 107.132  1.00  0.00     0.131 A 
ATOM      5  C   UNL     1     120.842 157.256 106.992  1.00  0.00     0.132 A 
ATOM      6  N   UNL     1     120.906 158.410 107.701  1.00  0.00    -0.247 NA
ATOM      7  C   UNL     1     119.867 158.566 108.546  1.00  0.00     0.156 A 
ATOM      8  C   UNL     1     119.639 159.711 109.440  1.00  0.00     0.283 C 
ATOM      9  O   UNL     1     120.387 160.668 109.519  1.00  0.00    -0.267 OA
ATOM     10  N   UNL     1     118.443 159.466 110.103  1.00  0.00    -0.248 N 
ENDROOT
BRANCH   1  11
ATOM     11  O   UNL     1     117.918 157.311 110.864  1.00  0.00    -0.419 OA
BRANCH  11  12
ATOM     12  C   UNL     1     116.786 156.593 111.064  1.00  0.00     0.412 C 
ATOM     13  N   UNL     1     115.998 155.884 115.275  1.00  0.00    -0.303 NA
ATOM     14  C   UNL     1     117.363 155.805 114.716  1.00  0.00     0.106 C 
ATOM     15  C   UNL     1     114.958 155.964 114.227  1.00  0.00     0.106 C 
ATOM     16  C   UNL     1     117.549 156.651 113.445  1.00  0.00     0.138 C 
ATOM     17  C   UNL     1     115.411 155.548 112.814  1.00  0.00     0.138 C 
ATOM     18  N   UNL     1     116.607 156.269 112.393  1.00  0.00    -0.306 N 
ATOM     19  O   UNL     1     116.008 156.271 110.175  1.00  0.00    -0.224 OA
ATOM     20  C   UNL     1     115.755 154.783 116.203  1.00  0.00     0.105 C 
ENDBRANCH  11  12
ENDBRANCH   1  11
BRANCH  10  21
ATOM     21  C   UNL     1     117.770 160.307 111.004  1.00  0.00     0.138 A 
ATOM     22  C   UNL     1     116.897 159.817 111.972  1.00  0.00     0.049 A 
ATOM     23  N   UNL     1     118.018 161.634 110.895  1.00  0.00    -0.237 NA
ATOM     24  C   UNL     1     116.259 160.705 112.844  1.00  0.00     0.026 A 
ATOM     25  C   UNL     1     117.388 162.479 111.750  1.00  0.00     0.134 A 
ATOM     26  C   UNL     1     116.508 162.063 112.732  1.00  0.00     0.059 A 
ATOM     27  Cl  UNL     1     115.748 163.188 113.777  1.00  0.00    -0.083 Cl
ENDBRANCH  10  21
TORSDOF 3
ENDMDL
MODEL 9
REMARK VINA RESULT:    -7.533      3.899      8.065
REMARK INTER + INTRA:          -9.326
REMARK INTER:                  -8.311
REMARK INTRA:                  -1.015
REMARK UNBOUND:                -0.472
REMARK SMILES CN1CCN(C(=O)OC2c3nccnc3C(=O)N2c2ccc(Cl)cn2)CC1
REMARK SMILES IDX 9 1 10 2 11 3 12 4 13 5 14 6 15 7 16 8 17 9 18 10 8 11 6 12
REMARK SMILES IDX 2 13 3 14 27 15 4 16 26 17 5 18 7 19 1 20 19 21 20 22 25 23
REMARK SMILES IDX 21 24 24 25 22 26 23 27
REMARK H PARENT
ROOT
ATOM      1  C   UNL     1     116.355 157.566 114.641  1.00  0.00     0.338 C 
ATOM      2  C   UNL     1     116.503 156.130 115.077  1.00  0.00     0.134 A 
ATOM      3  N   UNL     1     117.405 155.219 114.645  1.00  0.00    -0.251 NA
ATOM      4  C   UNL     1     117.270 153.997 115.222  1.00  0.00     0.131 A 
ATOM      5  C   UNL     1     116.289 153.710 116.173  1.00  0.00     0.132 A 
ATOM      6  N   UNL     1     115.385 154.626 116.601  1.00  0.00    -0.247 NA
ATOM      7  C   UNL     1     115.538 155.830 116.013  1.00  0.00     0.156 A 
ATOM      8  C   UNL     1     114.729 157.030 116.269  1.00  0.00     0.283 C 
ATOM      9  O   UNL     1     113.805 157.068 117.061  1.00  0.00    -0.267 OA
ATOM     10  N   UNL     1     115.251 158.040 115.470  1.00  0.00    -0.248 N 
ENDROOT
BRANCH   1  11
ATOM     11  O   UNL     1     115.946 157.589 113.277  1.00  0.00    -0.419 OA
BRANCH  11  12
ATOM     12  C   UNL     1     116.758 158.312 112.467  1.00  0.00     0.412 C 
ATOM     13  N   UNL     1     117.587 156.285 108.718  1.00  0.00    -0.303 NA
ATOM     14  C   UNL     1     117.545 155.556 110.002  1.00  0.00     0.106 C 
ATOM     15  C   UNL     1     117.579 157.753 108.896  1.00  0.00     0.106 C 
ATOM     16  C   UNL     1     116.669 156.245 111.062  1.00  0.00     0.138 C 
ATOM     17  C   UNL     1     117.936 158.249 110.310  1.00  0.00     0.138 C 
ATOM     18  N   UNL     1     117.113 157.613 111.333  1.00  0.00    -0.306 N 
ATOM     19  O   UNL     1     117.131 159.454 112.707  1.00  0.00    -0.224 OA
ATOM     20  C   UNL     1     118.717 155.840 107.906  1.00  0.00     0.105 C 
ENDBRANCH  11  12
ENDBRANCH   1  11
BRANCH  10  21
ATOM     21  C   UNL     1     114.861 159.389 115.422  1.00  0.00     0.138 A 
ATOM     22  C   UNL     1     113.812 159.833 114.621  1.00  0.00     0.049 A 
ATOM     23  N   UNL     1     115.554 160.248 116.207  1.00  0.00    -0.237 NA
ATOM     24  C   UNL     1     113.468 161.189 114.619  1.00  0.00     0.026 A 
ATOM     25  C   UNL     1     115.205 161.559 116.189  1.00  0.00     0.134 A 
ATOM     26  C   UNL     1     114.178 162.070 115.418  1.00  0.00     0.059 A 
ATOM     27  Cl  UNL     1     113.793 163.740 115.446  1.00  0.00    -0.083 Cl
ENDBRANCH  10  21
TORSDOF 3
ENDMDL
