MODEL 1
REMARK VINA RESULT:    -6.819      0.000      0.000
REMARK INTER + INTRA:          -8.022
REMARK INTER:                  -7.417
REMARK INTRA:                  -0.605
REMARK UNBOUND:                -0.605
REMARK SMILES O=C1Nc2ccc(Cl)cc2C(c2ccccc2Cl)=NC1O
REMARK SMILES IDX 1 1 2 2 3 3 4 4 5 5 6 6 7 7 8 8 9 9 10 10 11 11 19 12 20 13
REMARK SMILES IDX 21 15 12 17 13 18 17 19 14 20 16 21 15 22 18 23
REMARK H PARENT 3 14 21 16
ROOT
ATOM      1  O   UNL     1     145.841  96.589 133.616  1.00  0.00    -0.269 OA
ATOM      2  C   UNL     1     144.810  97.127 134.029  1.00  0.00     0.276 C 
ATOM      3  N   UNL     1     144.210  96.630 135.159  1.00  0.00    -0.321 N 
ATOM      4  C   UNL     1     143.041  97.092 135.779  1.00  0.00     0.050 A 
ATOM      5  C   UNL     1     142.923  96.808 137.149  1.00  0.00     0.028 A 
ATOM      6  C   UNL     1     141.830  97.270 137.884  1.00  0.00     0.023 A 
ATOM      7  C   UNL     1     140.837  98.007 137.250  1.00  0.00     0.041 A 
ATOM      8  Cl  UNL     1     139.492  98.583 138.153  1.00  0.00    -0.084 Cl
ATOM      9  C   UNL     1     140.913  98.260 135.883  1.00  0.00     0.033 A 
ATOM     10  C   UNL     1     142.003  97.786 135.133  1.00  0.00     0.026 A 
ATOM     11  C   UNL     1     141.935  97.900 133.644  1.00  0.00     0.079 C 
ATOM     12  N   UNL     1     142.917  98.135 132.847  1.00  0.00    -0.243 NA
ATOM     13  C   UNL     1     144.235  98.415 133.397  1.00  0.00     0.323 C 
ATOM     14  H   UNL     1     144.764  95.917 135.617  1.00  0.00     0.170 HD
ENDROOT
BRANCH  13  15
ATOM     15  O   UNL     1     144.311  99.525 134.281  1.00  0.00    -0.364 OA
ATOM     16  H   UNL     1     143.868  99.241 135.097  1.00  0.00     0.213 HD
ENDBRANCH  13  15
BRANCH  11  17
ATOM     17  C   UNL     1     140.618  97.653 133.001  1.00  0.00     0.019 A 
ATOM     18  C   UNL     1     140.205  96.322 132.847  1.00  0.00     0.012 A 
ATOM     19  C   UNL     1     139.813  98.699 132.539  1.00  0.00     0.050 A 
ATOM     20  C   UNL     1     138.984  96.041 132.237  1.00  0.00     0.001 A 
ATOM     21  C   UNL     1     138.590  98.408 131.929  1.00  0.00     0.021 A 
ATOM     22  C   UNL     1     138.177  97.082 131.778  1.00  0.00     0.002 A 
ATOM     23  Cl  UNL     1     140.242 100.359 132.741  1.00  0.00    -0.084 Cl
ENDBRANCH  11  17
TORSDOF 2
ENDMDL
MODEL 2
REMARK VINA RESULT:    -6.806      2.978      4.449
REMARK INTER + INTRA:          -8.008
REMARK INTER:                  -7.469
REMARK INTRA:                  -0.539
REMARK UNBOUND:                -0.605
REMARK SMILES O=C1Nc2ccc(Cl)cc2C(c2ccccc2Cl)=NC1O
REMARK SMILES IDX 1 1 2 2 3 3 4 4 5 5 6 6 7 7 8 8 9 9 10 10 11 11 19 12 20 13
REMARK SMILES IDX 21 15 12 17 13 18 17 19 14 20 16 21 15 22 18 23
REMARK H PARENT 3 14 21 16
ROOT
ATOM      1  O   UNL     1     138.457 100.407 133.570  1.00  0.00    -0.269 OA
ATOM      2  C   UNL     1     139.034  99.376 133.927  1.00  0.00     0.276 C 
ATOM      3  N   UNL     1     139.700  99.372 135.127  1.00  0.00    -0.321 N 
ATOM      4  C   UNL     1     140.416  98.313 135.703  1.00  0.00     0.050 A 
ATOM      5  C   UNL     1     140.539  98.349 137.101  1.00  0.00     0.028 A 
ATOM      6  C   UNL     1     141.180  97.317 137.790  1.00  0.00     0.023 A 
ATOM      7  C   UNL     1     141.716  96.249 137.082  1.00  0.00     0.041 A 
ATOM      8  Cl  UNL     1     142.500  94.972 137.927  1.00  0.00    -0.084 Cl
ATOM      9  C   UNL     1     141.644  96.217 135.692  1.00  0.00     0.033 A 
ATOM     10  C   UNL     1     141.014  97.259 134.991  1.00  0.00     0.026 A 
ATOM     11  C   UNL     1     141.145  97.286 133.502  1.00  0.00     0.079 C 
ATOM     12  N   UNL     1     140.254  97.674 132.659  1.00  0.00    -0.243 NA
ATOM     13  C   UNL     1     138.933  98.051 133.138  1.00  0.00     0.323 C 
ATOM     14  H   UNL     1     139.544 100.214 135.666  1.00  0.00     0.170 HD
ENDROOT
BRANCH  13  15
ATOM     15  O   UNL     1     138.229  97.049 133.860  1.00  0.00    -0.364 OA
ATOM     16  H   UNL     1     138.910  96.524 134.310  1.00  0.00     0.213 HD
ENDBRANCH  13  15
BRANCH  11  17
ATOM     17  C   UNL     1     142.459  96.890 132.928  1.00  0.00     0.019 A 
ATOM     18  C   UNL     1     142.506  95.730 132.143  1.00  0.00     0.012 A 
ATOM     19  C   UNL     1     143.623  97.627 133.172  1.00  0.00     0.050 A 
ATOM     20  C   UNL     1     143.718  95.313 131.595  1.00  0.00     0.001 A 
ATOM     21  C   UNL     1     144.834  97.201 132.618  1.00  0.00     0.021 A 
ATOM     22  C   UNL     1     144.880  96.046 131.833  1.00  0.00     0.002 A 
ATOM     23  Cl  UNL     1     143.622  99.088 134.090  1.00  0.00    -0.084 Cl
ENDBRANCH  11  17
TORSDOF 2
ENDMDL
MODEL 3
REMARK VINA RESULT:    -6.694      2.496      4.395
REMARK INTER + INTRA:          -7.886
REMARK INTER:                  -7.286
REMARK INTRA:                  -0.600
REMARK UNBOUND:                -0.605
REMARK SMILES O=C1Nc2ccc(Cl)cc2C(c2ccccc2Cl)=NC1O
REMARK SMILES IDX 1 1 2 2 3 3 4 4 5 5 6 6 7 7 8 8 9 9 10 10 11 11 19 12 20 13
REMARK SMILES IDX 21 15 12 17 13 18 17 19 14 20 16 21 15 22 18 23
REMARK H PARENT 3 14 21 16
ROOT
ATOM      1  O   UNL     1     140.778  97.880 137.829  1.00  0.00    -0.269 OA
ATOM      2  C   UNL     1     140.980  98.072 136.627  1.00  0.00     0.276 C 
ATOM      3  N   UNL     1     140.094  98.847 135.921  1.00  0.00    -0.321 N 
ATOM      4  C   UNL     1     140.142  99.176 134.559  1.00  0.00     0.050 A 
ATOM      5  C   UNL     1     139.483 100.361 134.193  1.00  0.00     0.028 A 
ATOM      6  C   UNL     1     139.515 100.819 132.875  1.00  0.00     0.023 A 
ATOM      7  C   UNL     1     140.193 100.086 131.909  1.00  0.00     0.041 A 
ATOM      8  Cl  UNL     1     140.240 100.651 130.285  1.00  0.00    -0.084 Cl
ATOM      9  C   UNL     1     140.814  98.885 132.242  1.00  0.00     0.033 A 
ATOM     10  C   UNL     1     140.774  98.410 133.564  1.00  0.00     0.026 A 
ATOM     11  C   UNL     1     141.270  97.025 133.829  1.00  0.00     0.079 C 
ATOM     12  N   UNL     1     141.892  96.619 134.879  1.00  0.00    -0.243 NA
ATOM     13  C   UNL     1     142.257  97.579 135.910  1.00  0.00     0.323 C 
ATOM     14  H   UNL     1     139.402  99.290 136.512  1.00  0.00     0.170 HD
ENDROOT
BRANCH  13  15
ATOM     15  O   UNL     1     143.083  98.655 135.485  1.00  0.00    -0.364 OA
ATOM     16  H   UNL     1     143.900  98.245 135.158  1.00  0.00     0.213 HD
ENDBRANCH  13  15
BRANCH  11  17
ATOM     17  C   UNL     1     140.959  95.985 132.812  1.00  0.00     0.019 A 
ATOM     18  C   UNL     1     142.010  95.523 132.008  1.00  0.00     0.012 A 
ATOM     19  C   UNL     1     139.663  95.490 132.634  1.00  0.00     0.050 A 
ATOM     20  C   UNL     1     141.764  94.559 131.032  1.00  0.00     0.001 A 
ATOM     21  C   UNL     1     139.425  94.524 131.653  1.00  0.00     0.021 A 
ATOM     22  C   UNL     1     140.473  94.060 130.854  1.00  0.00     0.002 A 
ATOM     23  Cl  UNL     1     138.337  95.984 133.622  1.00  0.00    -0.084 Cl
ENDBRANCH  11  17
TORSDOF 2
ENDMDL
MODEL 4
REMARK VINA RESULT:    -6.581      3.369      4.515
REMARK INTER + INTRA:          -7.763
REMARK INTER:                  -7.162
REMARK INTRA:                  -0.600
REMARK UNBOUND:                -0.605
REMARK SMILES O=C1Nc2ccc(Cl)cc2C(c2ccccc2Cl)=NC1O
REMARK SMILES IDX 1 1 2 2 3 3 4 4 5 5 6 6 7 7 8 8 9 9 10 10 11 11 19 12 20 13
REMARK SMILES IDX 21 15 12 17 13 18 17 19 14 20 16 21 15 22 18 23
REMARK H PARENT 3 14 21 16
ROOT
ATOM      1  O   UNL     1     144.570  97.029 139.615  1.00  0.00    -0.269 OA
ATOM      2  C   UNL     1     144.005  96.498 138.655  1.00  0.00     0.276 C 
ATOM      3  N   UNL     1     144.767  96.009 137.625  1.00  0.00    -0.321 N 
ATOM      4  C   UNL     1     144.320  95.381 136.453  1.00  0.00     0.050 A 
ATOM      5  C   UNL     1     145.237  94.516 135.836  1.00  0.00     0.028 A 
ATOM      6  C   UNL     1     144.881  93.792 134.697  1.00  0.00     0.023 A 
ATOM      7  C   UNL     1     143.609  93.938 134.159  1.00  0.00     0.041 A 
ATOM      8  Cl  UNL     1     143.165  93.042 132.760  1.00  0.00    -0.084 Cl
ATOM      9  C   UNL     1     142.700  94.825 134.730  1.00  0.00     0.033 A 
ATOM     10  C   UNL     1     143.056  95.570 135.868  1.00  0.00     0.026 A 
ATOM     11  C   UNL     1     142.130  96.654 136.316  1.00  0.00     0.079 C 
ATOM     12  N   UNL     1     141.890  97.005 137.530  1.00  0.00    -0.243 NA
ATOM     13  C   UNL     1     142.480  96.248 138.624  1.00  0.00     0.323 C 
ATOM     14  H   UNL     1     145.759  96.035 137.823  1.00  0.00     0.170 HD
ENDROOT
BRANCH  13  15
ATOM     15  O   UNL     1     142.162  94.863 138.657  1.00  0.00    -0.364 OA
ATOM     16  H   UNL     1     142.170  94.615 139.596  1.00  0.00     0.213 HD
ENDBRANCH  13  15
BRANCH  11  17
ATOM     17  C   UNL     1     141.466  97.462 135.259  1.00  0.00     0.019 A 
ATOM     18  C   UNL     1     140.099  97.246 135.033  1.00  0.00     0.012 A 
ATOM     19  C   UNL     1     142.170  98.395 134.490  1.00  0.00     0.050 A 
ATOM     20  C   UNL     1     139.437  97.970 134.043  1.00  0.00     0.001 A 
ATOM     21  C   UNL     1     141.498  99.116 133.500  1.00  0.00     0.021 A 
ATOM     22  C   UNL     1     140.135  98.904 133.278  1.00  0.00     0.002 A 
ATOM     23  Cl  UNL     1     143.841  98.741 134.751  1.00  0.00    -0.084 Cl
ENDBRANCH  11  17
TORSDOF 2
ENDMDL
MODEL 5
REMARK VINA RESULT:    -6.538      2.935      5.590
REMARK INTER + INTRA:          -7.716
REMARK INTER:                  -7.112
REMARK INTRA:                  -0.605
REMARK UNBOUND:                -0.605
REMARK SMILES O=C1Nc2ccc(Cl)cc2C(c2ccccc2Cl)=NC1O
REMARK SMILES IDX 1 1 2 2 3 3 4 4 5 5 6 6 7 7 8 8 9 9 10 10 11 11 19 12 20 13
REMARK SMILES IDX 21 15 12 17 13 18 17 19 14 20 16 21 15 22 18 23
REMARK H PARENT 3 14 21 16
ROOT
ATOM      1  O   UNL     1     138.005 100.841 133.500  1.00  0.00    -0.269 OA
ATOM      2  C   UNL     1     138.802  99.900 133.465  1.00  0.00     0.276 C 
ATOM      3  N   UNL     1     138.317  98.626 133.306  1.00  0.00    -0.321 N 
ATOM      4  C   UNL     1     139.051  97.433 133.249  1.00  0.00     0.050 A 
ATOM      5  C   UNL     1     138.436  96.371 132.566  1.00  0.00     0.028 A 
ATOM      6  C   UNL     1     139.098  95.153 132.395  1.00  0.00     0.023 A 
ATOM      7  C   UNL     1     140.374  94.984 132.917  1.00  0.00     0.041 A 
ATOM      8  Cl  UNL     1     141.194  93.489 132.701  1.00  0.00    -0.084 Cl
ATOM      9  C   UNL     1     140.982  96.010 133.636  1.00  0.00     0.033 A 
ATOM     10  C   UNL     1     140.317  97.234 133.826  1.00  0.00     0.026 A 
ATOM     11  C   UNL     1     140.917  98.220 134.775  1.00  0.00     0.079 C 
ATOM     12  N   UNL     1     140.901  99.502 134.662  1.00  0.00    -0.243 NA
ATOM     13  C   UNL     1     140.334 100.108 133.467  1.00  0.00     0.323 C 
ATOM     14  H   UNL     1     137.324  98.605 133.113  1.00  0.00     0.170 HD
ENDROOT
BRANCH  13  15
ATOM     15  O   UNL     1     140.930  99.719 132.236  1.00  0.00    -0.364 OA
ATOM     16  H   UNL     1     141.811  99.383 132.467  1.00  0.00     0.213 HD
ENDBRANCH  13  15
BRANCH  11  17
ATOM     17  C   UNL     1     141.540  97.682 136.013  1.00  0.00     0.019 A 
ATOM     18  C   UNL     1     140.690  97.306 137.062  1.00  0.00     0.012 A 
ATOM     19  C   UNL     1     142.928  97.569 136.153  1.00  0.00     0.050 A 
ATOM     20  C   UNL     1     141.230  96.810 138.248  1.00  0.00     0.001 A 
ATOM     21  C   UNL     1     143.460  97.070 137.345  1.00  0.00     0.021 A 
ATOM     22  C   UNL     1     142.613  96.692 138.389  1.00  0.00     0.002 A 
ATOM     23  Cl  UNL     1     144.025  97.970 134.882  1.00  0.00    -0.084 Cl
ENDBRANCH  11  17
TORSDOF 2
ENDMDL
MODEL 6
REMARK VINA RESULT:    -6.417      2.692      4.954
REMARK INTER + INTRA:          -7.584
REMARK INTER:                  -6.985
REMARK INTRA:                  -0.600
REMARK UNBOUND:                -0.605
REMARK SMILES O=C1Nc2ccc(Cl)cc2C(c2ccccc2Cl)=NC1O
REMARK SMILES IDX 1 1 2 2 3 3 4 4 5 5 6 6 7 7 8 8 9 9 10 10 11 11 19 12 20 13
REMARK SMILES IDX 21 15 12 17 13 18 17 19 14 20 16 21 15 22 18 23
REMARK H PARENT 3 14 21 16
ROOT
ATOM      1  O   UNL     1     141.931  96.114 129.904  1.00  0.00    -0.269 OA
ATOM      2  C   UNL     1     141.346  96.602 130.875  1.00  0.00     0.276 C 
ATOM      3  N   UNL     1     141.305  97.967 131.006  1.00  0.00    -0.321 N 
ATOM      4  C   UNL     1     140.701  98.710 132.031  1.00  0.00     0.050 A 
ATOM      5  C   UNL     1     140.322 100.019 131.694  1.00  0.00     0.028 A 
ATOM      6  C   UNL     1     139.659 100.831 132.616  1.00  0.00     0.023 A 
ATOM      7  C   UNL     1     139.384 100.344 133.888  1.00  0.00     0.041 A 
ATOM      8  Cl  UNL     1     138.561 101.339 135.024  1.00  0.00    -0.084 Cl
ATOM      9  C   UNL     1     139.792  99.064 134.256  1.00  0.00     0.033 A 
ATOM     10  C   UNL     1     140.473  98.246 133.338  1.00  0.00     0.026 A 
ATOM     11  C   UNL     1     141.071  96.972 133.841  1.00  0.00     0.079 C 
ATOM     12  N   UNL     1     141.159  95.860 133.201  1.00  0.00    -0.243 NA
ATOM     13  C   UNL     1     140.551  95.742 131.883  1.00  0.00     0.323 C 
ATOM     14  H   UNL     1     141.675  98.451 130.198  1.00  0.00     0.170 HD
ENDROOT
BRANCH  13  15
ATOM     15  O   UNL     1     139.155  96.000 131.824  1.00  0.00    -0.364 OA
ATOM     16  H   UNL     1     138.910  95.899 130.889  1.00  0.00     0.213 HD
ENDBRANCH  13  15
BRANCH  11  17
ATOM     17  C   UNL     1     141.693  96.999 135.191  1.00  0.00     0.019 A 
ATOM     18  C   UNL     1     140.974  96.434 136.254  1.00  0.00     0.012 A 
ATOM     19  C   UNL     1     142.944  97.584 135.417  1.00  0.00     0.050 A 
ATOM     20  C   UNL     1     141.511  96.449 137.540  1.00  0.00     0.001 A 
ATOM     21  C   UNL     1     143.475  97.594 136.710  1.00  0.00     0.021 A 
ATOM     22  C   UNL     1     142.760  97.028 137.768  1.00  0.00     0.002 A 
ATOM     23  Cl  UNL     1     143.899  98.253 134.144  1.00  0.00    -0.084 Cl
ENDBRANCH  11  17
TORSDOF 2
ENDMDL
MODEL 7
REMARK VINA RESULT:    -6.161      2.839      4.581
REMARK INTER + INTRA:          -7.306
REMARK INTER:                  -6.702
REMARK INTRA:                  -0.604
REMARK UNBOUND:                -0.605
REMARK SMILES O=C1Nc2ccc(Cl)cc2C(c2ccccc2Cl)=NC1O
REMARK SMILES IDX 1 1 2 2 3 3 4 4 5 5 6 6 7 7 8 8 9 9 10 10 11 11 19 12 20 13
REMARK SMILES IDX 21 15 12 17 13 18 17 19 14 20 16 21 15 22 18 23
REMARK H PARENT 3 14 21 16
ROOT
ATOM      1  O   UNL     1     144.049  99.062 134.671  1.00  0.00    -0.269 OA
ATOM      2  C   UNL     1     143.287  98.737 133.756  1.00  0.00     0.276 C 
ATOM      3  N   UNL     1     141.933  98.807 133.965  1.00  0.00    -0.321 N 
ATOM      4  C   UNL     1     140.911  98.479 133.062  1.00  0.00     0.050 A 
ATOM      5  C   UNL     1     139.678  99.116 133.279  1.00  0.00     0.028 A 
ATOM      6  C   UNL     1     138.606  98.912 132.409  1.00  0.00     0.023 A 
ATOM      7  C   UNL     1     138.754  98.058 131.323  1.00  0.00     0.041 A 
ATOM      8  Cl  UNL     1     137.437  97.810 130.246  1.00  0.00    -0.084 Cl
ATOM      9  C   UNL     1     139.954  97.382 131.117  1.00  0.00     0.033 A 
ATOM     10  C   UNL     1     141.034  97.571 131.997  1.00  0.00     0.026 A 
ATOM     11  C   UNL     1     142.220  96.672 131.857  1.00  0.00     0.079 C 
ATOM     12  N   UNL     1     143.452  96.991 132.047  1.00  0.00    -0.243 NA
ATOM     13  C   UNL     1     143.796  98.374 132.342  1.00  0.00     0.323 C 
ATOM     14  H   UNL     1     141.693  99.244 134.845  1.00  0.00     0.170 HD
ENDROOT
BRANCH  13  15
ATOM     15  O   UNL     1     143.398  99.329 131.368  1.00  0.00    -0.364 OA
ATOM     16  H   UNL     1     144.204  99.819 131.137  1.00  0.00     0.213 HD
ENDBRANCH  13  15
BRANCH  11  17
ATOM     17  C   UNL     1     141.958  95.245 131.532  1.00  0.00     0.019 A 
ATOM     18  C   UNL     1     142.246  94.807 130.232  1.00  0.00     0.012 A 
ATOM     19  C   UNL     1     141.421  94.360 132.473  1.00  0.00     0.050 A 
ATOM     20  C   UNL     1     142.003  93.481 129.877  1.00  0.00     0.001 A 
ATOM     21  C   UNL     1     141.181  93.032 132.108  1.00  0.00     0.021 A 
ATOM     22  C   UNL     1     141.471  92.594 130.814  1.00  0.00     0.002 A 
ATOM     23  Cl  UNL     1     141.090  94.825 134.102  1.00  0.00    -0.084 Cl
ENDBRANCH  11  17
TORSDOF 2
ENDMDL
MODEL 8
REMARK VINA RESULT:    -6.047      3.066      5.361
REMARK INTER + INTRA:          -7.181
REMARK INTER:                  -6.585
REMARK INTRA:                  -0.596
REMARK UNBOUND:                -0.605
REMARK SMILES O=C1Nc2ccc(Cl)cc2C(c2ccccc2Cl)=NC1O
REMARK SMILES IDX 1 1 2 2 3 3 4 4 5 5 6 6 7 7 8 8 9 9 10 10 11 11 19 12 20 13
REMARK SMILES IDX 21 15 12 17 13 18 17 19 14 20 16 21 15 22 18 23
REMARK H PARENT 3 14 21 16
ROOT
ATOM      1  O   UNL     1     140.293  98.740 137.067  1.00  0.00    -0.269 OA
ATOM      2  C   UNL     1     140.534  98.247 135.962  1.00  0.00     0.276 C 
ATOM      3  N   UNL     1     139.677  97.302 135.457  1.00  0.00    -0.321 N 
ATOM      4  C   UNL     1     139.778  96.624 134.233  1.00  0.00     0.050 A 
ATOM      5  C   UNL     1     138.571  96.140 133.703  1.00  0.00     0.028 A 
ATOM      6  C   UNL     1     138.541  95.501 132.462  1.00  0.00     0.023 A 
ATOM      7  C   UNL     1     139.721  95.328 131.749  1.00  0.00     0.041 A 
ATOM      8  Cl  UNL     1     139.687  94.547 130.217  1.00  0.00    -0.084 Cl
ATOM      9  C   UNL     1     140.934  95.760 132.279  1.00  0.00     0.033 A 
ATOM     10  C   UNL     1     140.975  96.391 133.535  1.00  0.00     0.026 A 
ATOM     11  C   UNL     1     142.312  96.645 134.150  1.00  0.00     0.079 C 
ATOM     12  N   UNL     1     142.646  97.657 134.872  1.00  0.00    -0.243 NA
ATOM     13  C   UNL     1     141.694  98.741 135.068  1.00  0.00     0.323 C 
ATOM     14  H   UNL     1     138.842  97.188 136.017  1.00  0.00     0.170 HD
ENDROOT
BRANCH  13  15
ATOM     15  O   UNL     1     141.227  99.373 133.884  1.00  0.00    -0.364 OA
ATOM     16  H   UNL     1     141.173 100.319 134.096  1.00  0.00     0.213 HD
ENDBRANCH  13  15
BRANCH  11  17
ATOM     17  C   UNL     1     143.353  95.597 133.977  1.00  0.00     0.019 A 
ATOM     18  C   UNL     1     143.238  94.429 134.743  1.00  0.00     0.012 A 
ATOM     19  C   UNL     1     144.430  95.764 133.099  1.00  0.00     0.050 A 
ATOM     20  C   UNL     1     144.198  93.425 134.624  1.00  0.00     0.001 A 
ATOM     21  C   UNL     1     145.387  94.752 132.986  1.00  0.00     0.021 A 
ATOM     22  C   UNL     1     145.271  93.586 133.747  1.00  0.00     0.002 A 
ATOM     23  Cl  UNL     1     144.602  97.157 132.094  1.00  0.00    -0.084 Cl
ENDBRANCH  11  17
TORSDOF 2
ENDMDL
MODEL 9
REMARK VINA RESULT:    -5.869      3.140      4.863
REMARK INTER + INTRA:          -6.988
REMARK INTER:                  -6.454
REMARK INTRA:                  -0.534
REMARK UNBOUND:                -0.605
REMARK SMILES O=C1Nc2ccc(Cl)cc2C(c2ccccc2Cl)=NC1O
REMARK SMILES IDX 1 1 2 2 3 3 4 4 5 5 6 6 7 7 8 8 9 9 10 10 11 11 19 12 20 13
REMARK SMILES IDX 21 15 12 17 13 18 17 19 14 20 16 21 15 22 18 23
REMARK H PARENT 3 14 21 16
ROOT
ATOM      1  O   UNL     1     139.677  99.909 129.993  1.00  0.00    -0.269 OA
ATOM      2  C   UNL     1     139.981  99.060 130.836  1.00  0.00     0.276 C 
ATOM      3  N   UNL     1     140.281  99.470 132.111  1.00  0.00    -0.321 N 
ATOM      4  C   UNL     1     140.652  98.670 133.201  1.00  0.00     0.050 A 
ATOM      5  C   UNL     1     140.387  99.207 134.471  1.00  0.00     0.028 A 
ATOM      6  C   UNL     1     140.659  98.475 135.628  1.00  0.00     0.023 A 
ATOM      7  C   UNL     1     141.213  97.206 135.523  1.00  0.00     0.041 A 
ATOM      8  Cl  UNL     1     141.544  96.298 136.946  1.00  0.00    -0.084 Cl
ATOM      9  C   UNL     1     141.526  96.674 134.275  1.00  0.00     0.033 A 
ATOM     10  C   UNL     1     141.269  97.410 133.106  1.00  0.00     0.026 A 
ATOM     11  C   UNL     1     141.810  96.890 131.814  1.00  0.00     0.079 C 
ATOM     12  N   UNL     1     141.252  96.975 130.657  1.00  0.00    -0.243 NA
ATOM     13  C   UNL     1     139.917  97.543 130.547  1.00  0.00     0.323 C 
ATOM     14  H   UNL     1     140.103 100.455 132.259  1.00  0.00     0.170 HD
ENDROOT
BRANCH  13  15
ATOM     15  O   UNL     1     138.906  96.895 131.309  1.00  0.00    -0.364 OA
ATOM     16  H   UNL     1     138.555  97.573 131.909  1.00  0.00     0.213 HD
ENDBRANCH  13  15
BRANCH  11  17
ATOM     17  C   UNL     1     143.161  96.271 131.842  1.00  0.00     0.019 A 
ATOM     18  C   UNL     1     143.261  94.906 131.538  1.00  0.00     0.012 A 
ATOM     19  C   UNL     1     144.304  97.004 132.181  1.00  0.00     0.050 A 
ATOM     20  C   UNL     1     144.506  94.279 131.566  1.00  0.00     0.001 A 
ATOM     21  C   UNL     1     145.547  96.367 132.205  1.00  0.00     0.021 A 
ATOM     22  C   UNL     1     145.647  95.008 131.899  1.00  0.00     0.002 A 
ATOM     23  Cl  UNL     1     144.254  98.696 132.518  1.00  0.00    -0.084 Cl
ENDBRANCH  11  17
TORSDOF 2
ENDMDL
