MODEL 1
REMARK VINA RESULT:   -10.887      0.000      0.000
REMARK INTER + INTRA:         -11.576
REMARK INTER:                 -11.523
REMARK INTRA:                  -0.053
REMARK UNBOUND:                -0.053
REMARK SMILES Cc1nnc2n1-c1ccc(Cl)cc1C(c1ccccc1Cl)=NC2
REMARK SMILES IDX 1 1 2 2 3 3 4 4 5 5 6 6 7 7 8 8 9 9 10 10 11 11 12 12 13 13
REMARK SMILES IDX 14 14 22 15 23 16 15 17 16 18 20 19 17 20 19 21 18 22 21 23
REMARK H PARENT
ROOT
ATOM      1  C   UNL     1     115.450 160.701 113.069  1.00  0.00     0.090 C 
ATOM      2  C   UNL     1     116.658 160.838 112.223  1.00  0.00     0.134 A 
ATOM      3  N   UNL     1     117.080 161.981 111.721  1.00  0.00    -0.135 NA
ATOM      4  N   UNL     1     118.119 161.721 110.874  1.00  0.00    -0.133 NA
ATOM      5  C   UNL     1     118.325 160.422 110.871  1.00  0.00     0.159 A 
ATOM      6  N   UNL     1     117.454 159.806 111.744  1.00  0.00    -0.281 N 
ATOM      7  C   UNL     1     117.463 158.429 112.088  1.00  0.00     0.058 A 
ATOM      8  C   UNL     1     117.134 158.052 113.402  1.00  0.00     0.029 A 
ATOM      9  C   UNL     1     117.181 156.712 113.792  1.00  0.00     0.023 A 
ATOM     10  C   UNL     1     117.567 155.740 112.878  1.00  0.00     0.041 A 
ATOM     11  Cl  UNL     1     117.634 154.091 113.363  1.00  0.00    -0.084 Cl
ATOM     12  C   UNL     1     117.900 156.093 111.573  1.00  0.00     0.033 A 
ATOM     13  C   UNL     1     117.847 157.437 111.160  1.00  0.00     0.026 A 
ATOM     14  C   UNL     1     118.115 157.716 109.712  1.00  0.00     0.076 C 
ATOM     15  N   UNL     1     118.776 158.714 109.238  1.00  0.00    -0.276 NA
ATOM     16  C   UNL     1     119.377 159.686 110.140  1.00  0.00     0.220 C 
ENDROOT
BRANCH  14  17
ATOM     17  C   UNL     1     117.528 156.784 108.714  1.00  0.00     0.019 A 
ATOM     18  C   UNL     1     116.186 156.416 108.872  1.00  0.00     0.012 A 
ATOM     19  C   UNL     1     118.271 156.302 107.630  1.00  0.00     0.050 A 
ATOM     20  C   UNL     1     115.590 155.555 107.950  1.00  0.00     0.001 A 
ATOM     21  C   UNL     1     117.666 155.439 106.712  1.00  0.00     0.021 A 
ATOM     22  C   UNL     1     116.329 155.067 106.872  1.00  0.00     0.002 A 
ATOM     23  Cl  UNL     1     119.941 156.681 107.411  1.00  0.00    -0.084 Cl
ENDBRANCH  14  17
TORSDOF 1
ENDMDL
MODEL 2
REMARK VINA RESULT:    -7.836      4.444      7.353
REMARK INTER + INTRA:          -8.347
REMARK INTER:                  -7.741
REMARK INTRA:                  -0.605
REMARK UNBOUND:                -0.053
REMARK SMILES Cc1nnc2n1-c1ccc(Cl)cc1C(c1ccccc1Cl)=NC2
REMARK SMILES IDX 1 1 2 2 3 3 4 4 5 5 6 6 7 7 8 8 9 9 10 10 11 11 12 12 13 13
REMARK SMILES IDX 14 14 22 15 23 16 15 17 16 18 20 19 17 20 19 21 18 22 21 23
REMARK H PARENT
ROOT
ATOM      1  C   UNL     1     115.949 153.893 117.003  1.00  0.00     0.090 C 
ATOM      2  C   UNL     1     116.332 155.184 117.621  1.00  0.00     0.134 A 
ATOM      3  N   UNL     1     116.371 155.395 118.921  1.00  0.00    -0.135 NA
ATOM      4  N   UNL     1     116.610 156.722 119.134  1.00  0.00    -0.133 NA
ATOM      5  C   UNL     1     116.720 157.308 117.961  1.00  0.00     0.159 A 
ATOM      6  N   UNL     1     116.595 156.374 116.956  1.00  0.00    -0.281 N 
ATOM      7  C   UNL     1     116.776 156.621 115.569  1.00  0.00     0.058 A 
ATOM      8  C   UNL     1     117.358 155.622 114.769  1.00  0.00     0.029 A 
ATOM      9  C   UNL     1     117.599 155.847 113.412  1.00  0.00     0.023 A 
ATOM     10  C   UNL     1     117.271 157.071 112.846  1.00  0.00     0.041 A 
ATOM     11  Cl  UNL     1     117.577 157.351 111.177  1.00  0.00    -0.084 Cl
ATOM     12  C   UNL     1     116.697 158.075 113.622  1.00  0.00     0.033 A 
ATOM     13  C   UNL     1     116.437 157.862 114.989  1.00  0.00     0.026 A 
ATOM     14  C   UNL     1     115.719 158.952 115.724  1.00  0.00     0.076 C 
ATOM     15  N   UNL     1     115.953 159.341 116.929  1.00  0.00    -0.276 NA
ATOM     16  C   UNL     1     117.027 158.729 117.698  1.00  0.00     0.220 C 
ENDROOT
BRANCH  14  17
ATOM     17  C   UNL     1     114.595 159.627 115.024  1.00  0.00     0.019 A 
ATOM     18  C   UNL     1     114.851 160.863 114.416  1.00  0.00     0.012 A 
ATOM     19  C   UNL     1     113.324 159.047 114.941  1.00  0.00     0.050 A 
ATOM     20  C   UNL     1     113.829 161.525 113.735  1.00  0.00     0.001 A 
ATOM     21  C   UNL     1     112.306 159.718 114.257  1.00  0.00     0.021 A 
ATOM     22  C   UNL     1     112.559 160.953 113.656  1.00  0.00     0.002 A 
ATOM     23  Cl  UNL     1     112.936 157.552 115.711  1.00  0.00    -0.084 Cl
ENDBRANCH  14  17
TORSDOF 1
ENDMDL
MODEL 3
REMARK VINA RESULT:    -7.706      4.417      7.194
REMARK INTER + INTRA:          -8.210
REMARK INTER:                  -7.628
REMARK INTRA:                  -0.582
REMARK UNBOUND:                -0.053
REMARK SMILES Cc1nnc2n1-c1ccc(Cl)cc1C(c1ccccc1Cl)=NC2
REMARK SMILES IDX 1 1 2 2 3 3 4 4 5 5 6 6 7 7 8 8 9 9 10 10 11 11 12 12 13 13
REMARK SMILES IDX 14 14 22 15 23 16 15 17 16 18 20 19 17 20 19 21 18 22 21 23
REMARK H PARENT
ROOT
ATOM      1  C   UNL     1     116.310 154.219 116.896  1.00  0.00     0.090 C 
ATOM      2  C   UNL     1     116.534 155.547 117.514  1.00  0.00     0.134 A 
ATOM      3  N   UNL     1     116.557 155.760 118.815  1.00  0.00    -0.135 NA
ATOM      4  N   UNL     1     116.631 157.107 119.027  1.00  0.00    -0.133 NA
ATOM      5  C   UNL     1     116.658 157.702 117.855  1.00  0.00     0.159 A 
ATOM      6  N   UNL     1     116.643 156.761 116.849  1.00  0.00    -0.281 N 
ATOM      7  C   UNL     1     116.781 157.030 115.462  1.00  0.00     0.058 A 
ATOM      8  C   UNL     1     117.476 156.112 114.655  1.00  0.00     0.029 A 
ATOM      9  C   UNL     1     117.676 156.366 113.297  1.00  0.00     0.023 A 
ATOM     10  C   UNL     1     117.195 157.541 112.736  1.00  0.00     0.041 A 
ATOM     11  Cl  UNL     1     117.451 157.857 111.065  1.00  0.00    -0.084 Cl
ATOM     12  C   UNL     1     116.506 158.465 113.518  1.00  0.00     0.033 A 
ATOM     13  C   UNL     1     116.286 158.220 114.886  1.00  0.00     0.026 A 
ATOM     14  C   UNL     1     115.443 159.212 115.629  1.00  0.00     0.076 C 
ATOM     15  N   UNL     1     115.637 159.626 116.832  1.00  0.00    -0.276 NA
ATOM     16  C   UNL     1     116.784 159.151 117.593  1.00  0.00     0.220 C 
ENDROOT
BRANCH  14  17
ATOM     17  C   UNL     1     114.239 159.743 114.938  1.00  0.00     0.019 A 
ATOM     18  C   UNL     1     113.057 158.994 115.015  1.00  0.00     0.012 A 
ATOM     19  C   UNL     1     114.262 160.962 114.252  1.00  0.00     0.050 A 
ATOM     20  C   UNL     1     111.899 159.463 114.394  1.00  0.00     0.001 A 
ATOM     21  C   UNL     1     113.096 161.423 113.632  1.00  0.00     0.021 A 
ATOM     22  C   UNL     1     111.919 160.674 113.703  1.00  0.00     0.002 A 
ATOM     23  Cl  UNL     1     115.699 161.903 114.081  1.00  0.00    -0.084 Cl
ENDBRANCH  14  17
TORSDOF 1
ENDMDL
MODEL 4
REMARK VINA RESULT:    -7.408      2.791      4.682
REMARK INTER + INTRA:          -7.894
REMARK INTER:                  -8.130
REMARK INTRA:                   0.236
REMARK UNBOUND:                -0.053
REMARK SMILES Cc1nnc2n1-c1ccc(Cl)cc1C(c1ccccc1Cl)=NC2
REMARK SMILES IDX 1 1 2 2 3 3 4 4 5 5 6 6 7 7 8 8 9 9 10 10 11 11 12 12 13 13
REMARK SMILES IDX 14 14 22 15 23 16 15 17 16 18 20 19 17 20 19 21 18 22 21 23
REMARK H PARENT
ROOT
ATOM      1  C   UNL     1     117.447 157.462 115.555  1.00  0.00     0.090 C 
ATOM      2  C   UNL     1     116.862 156.756 114.390  1.00  0.00     0.134 A 
ATOM      3  N   UNL     1     116.570 155.471 114.378  1.00  0.00    -0.135 NA
ATOM      4  N   UNL     1     116.198 155.127 113.111  1.00  0.00    -0.133 NA
ATOM      5  C   UNL     1     116.262 156.206 112.362  1.00  0.00     0.159 A 
ATOM      6  N   UNL     1     116.638 157.288 113.128  1.00  0.00    -0.281 N 
ATOM      7  C   UNL     1     116.697 158.636 112.684  1.00  0.00     0.058 A 
ATOM      8  C   UNL     1     116.347 159.664 113.578  1.00  0.00     0.029 A 
ATOM      9  C   UNL     1     116.344 160.997 113.164  1.00  0.00     0.023 A 
ATOM     10  C   UNL     1     116.678 161.314 111.854  1.00  0.00     0.041 A 
ATOM     11  Cl  UNL     1     116.664 162.956 111.342  1.00  0.00    -0.084 Cl
ATOM     12  C   UNL     1     117.024 160.311 110.952  1.00  0.00     0.033 A 
ATOM     13  C   UNL     1     117.043 158.963 111.355  1.00  0.00     0.026 A 
ATOM     14  C   UNL     1     117.532 157.959 110.356  1.00  0.00     0.076 C 
ATOM     15  N   UNL     1     117.052 156.780 110.163  1.00  0.00    -0.276 NA
ATOM     16  C   UNL     1     115.904 156.324 110.933  1.00  0.00     0.220 C 
ENDROOT
BRANCH  14  17
ATOM     17  C   UNL     1     118.712 158.330 109.531  1.00  0.00     0.019 A 
ATOM     18  C   UNL     1     119.724 159.085 110.139  1.00  0.00     0.012 A 
ATOM     19  C   UNL     1     118.835 157.924 108.198  1.00  0.00     0.050 A 
ATOM     20  C   UNL     1     120.856 159.442 109.407  1.00  0.00     0.001 A 
ATOM     21  C   UNL     1     119.973 158.288 107.472  1.00  0.00     0.021 A 
ATOM     22  C   UNL     1     120.980 159.045 108.076  1.00  0.00     0.002 A 
ATOM     23  Cl  UNL     1     117.600 157.037 107.381  1.00  0.00    -0.084 Cl
ENDBRANCH  14  17
TORSDOF 1
ENDMDL
MODEL 5
REMARK VINA RESULT:    -7.284      3.799      6.647
REMARK INTER + INTRA:          -7.763
REMARK INTER:                  -7.143
REMARK INTRA:                  -0.621
REMARK UNBOUND:                -0.053
REMARK SMILES Cc1nnc2n1-c1ccc(Cl)cc1C(c1ccccc1Cl)=NC2
REMARK SMILES IDX 1 1 2 2 3 3 4 4 5 5 6 6 7 7 8 8 9 9 10 10 11 11 12 12 13 13
REMARK SMILES IDX 14 14 22 15 23 16 15 17 16 18 20 19 17 20 19 21 18 22 21 23
REMARK H PARENT
ROOT
ATOM      1  C   UNL     1     116.332 163.684 113.618  1.00  0.00     0.090 C 
ATOM      2  C   UNL     1     115.043 162.977 113.803  1.00  0.00     0.134 A 
ATOM      3  N   UNL     1     113.924 163.569 114.167  1.00  0.00    -0.135 NA
ATOM      4  N   UNL     1     112.981 162.607 114.389  1.00  0.00    -0.133 NA
ATOM      5  C   UNL     1     113.533 161.437 114.154  1.00  0.00     0.159 A 
ATOM      6  N   UNL     1     114.834 161.606 113.734  1.00  0.00    -0.281 N 
ATOM      7  C   UNL     1     115.698 160.575 113.279  1.00  0.00     0.058 A 
ATOM      8  C   UNL     1     116.608 160.855 112.244  1.00  0.00     0.029 A 
ATOM      9  C   UNL     1     117.438 159.855 111.735  1.00  0.00     0.023 A 
ATOM     10  C   UNL     1     117.360 158.566 112.247  1.00  0.00     0.041 A 
ATOM     11  Cl  UNL     1     118.376 157.332 111.612  1.00  0.00    -0.084 Cl
ATOM     12  C   UNL     1     116.464 158.267 113.270  1.00  0.00     0.033 A 
ATOM     13  C   UNL     1     115.628 159.266 113.802  1.00  0.00     0.026 A 
ATOM     14  C   UNL     1     114.773 158.887 114.973  1.00  0.00     0.076 C 
ATOM     15  N   UNL     1     113.560 159.263 115.185  1.00  0.00    -0.276 NA
ATOM     16  C   UNL     1     112.880 160.113 114.218  1.00  0.00     0.220 C 
ENDROOT
BRANCH  14  17
ATOM     17  C   UNL     1     115.387 158.031 116.022  1.00  0.00     0.019 A 
ATOM     18  C   UNL     1     116.186 158.653 116.989  1.00  0.00     0.012 A 
ATOM     19  C   UNL     1     115.161 156.651 116.072  1.00  0.00     0.050 A 
ATOM     20  C   UNL     1     116.770 157.891 118.001  1.00  0.00     0.001 A 
ATOM     21  C   UNL     1     115.750 155.895 117.089  1.00  0.00     0.021 A 
ATOM     22  C   UNL     1     116.553 156.514 118.050  1.00  0.00     0.002 A 
ATOM     23  Cl  UNL     1     114.226 155.822 114.881  1.00  0.00    -0.084 Cl
ENDBRANCH  14  17
TORSDOF 1
ENDMDL
MODEL 6
REMARK VINA RESULT:    -7.177      3.846      7.229
REMARK INTER + INTRA:          -7.649
REMARK INTER:                  -7.058
REMARK INTRA:                  -0.591
REMARK UNBOUND:                -0.053
REMARK SMILES Cc1nnc2n1-c1ccc(Cl)cc1C(c1ccccc1Cl)=NC2
REMARK SMILES IDX 1 1 2 2 3 3 4 4 5 5 6 6 7 7 8 8 9 9 10 10 11 11 12 12 13 13
REMARK SMILES IDX 14 14 22 15 23 16 15 17 16 18 20 19 17 20 19 21 18 22 21 23
REMARK H PARENT
ROOT
ATOM      1  C   UNL     1     116.312 156.032 111.539  1.00  0.00     0.090 C 
ATOM      2  C   UNL     1     116.275 156.395 112.976  1.00  0.00     0.134 A 
ATOM      3  N   UNL     1     116.088 155.527 113.950  1.00  0.00    -0.135 NA
ATOM      4  N   UNL     1     115.957 156.217 115.120  1.00  0.00    -0.133 NA
ATOM      5  C   UNL     1     116.071 157.499 114.851  1.00  0.00     0.159 A 
ATOM      6  N   UNL     1     116.318 157.677 113.507  1.00  0.00    -0.281 N 
ATOM      7  C   UNL     1     116.613 158.914 112.876  1.00  0.00     0.058 A 
ATOM      8  C   UNL     1     117.527 158.934 111.807  1.00  0.00     0.029 A 
ATOM      9  C   UNL     1     117.880 160.137 111.195  1.00  0.00     0.023 A 
ATOM     10  C   UNL     1     117.334 161.330 111.649  1.00  0.00     0.041 A 
ATOM     11  Cl  UNL     1     117.778 162.814 110.900  1.00  0.00    -0.084 Cl
ATOM     12  C   UNL     1     116.430 161.333 112.708  1.00  0.00     0.033 A 
ATOM     13  C   UNL     1     116.054 160.128 113.330  1.00  0.00     0.026 A 
ATOM     14  C   UNL     1     114.995 160.208 114.387  1.00  0.00     0.076 C 
ATOM     15  N   UNL     1     114.963 159.538 115.486  1.00  0.00    -0.276 NA
ATOM     16  C   UNL     1     116.045 158.620 115.813  1.00  0.00     0.220 C 
ENDROOT
BRANCH  14  17
ATOM     17  C   UNL     1     113.840 161.110 114.135  1.00  0.00     0.019 A 
ATOM     18  C   UNL     1     112.772 160.610 113.380  1.00  0.00     0.012 A 
ATOM     19  C   UNL     1     113.796 162.410 114.651  1.00  0.00     0.050 A 
ATOM     20  C   UNL     1     111.662 161.417 113.132  1.00  0.00     0.001 A 
ATOM     21  C   UNL     1     112.679 163.211 114.397  1.00  0.00     0.021 A 
ATOM     22  C   UNL     1     111.615 162.716 113.639  1.00  0.00     0.002 A 
ATOM     23  Cl  UNL     1     115.102 163.097 115.546  1.00  0.00    -0.084 Cl
ENDBRANCH  14  17
TORSDOF 1
ENDMDL
