MODEL 1
REMARK VINA RESULT:    -6.817      0.000      0.000
REMARK INTER + INTRA:          -7.836
REMARK INTER:                  -7.216
REMARK INTRA:                  -0.620
REMARK UNBOUND:                -0.620
REMARK SMILES Cc1nnc2n1-c1ccc(Cl)cc1C(c1ccccc1Cl)=NC2
REMARK SMILES IDX 1 1 2 2 3 3 4 4 5 5 6 6 7 7 8 8 9 9 10 10 11 11 12 12 13 13
REMARK SMILES IDX 14 14 22 15 23 16 15 17 16 18 20 19 17 20 19 21 18 22 21 23
REMARK H PARENT
ROOT
ATOM      1  C   UNL     1     141.710  95.932 137.429  1.00  0.00     0.090 C 
ATOM      2  C   UNL     1     141.165  97.206 136.906  1.00  0.00     0.134 A 
ATOM      3  N   UNL     1     140.552  98.105 137.650  1.00  0.00    -0.135 NA
ATOM      4  N   UNL     1     140.048  99.072 136.828  1.00  0.00    -0.133 NA
ATOM      5  C   UNL     1     140.363  98.756 135.591  1.00  0.00     0.159 A 
ATOM      6  N   UNL     1     141.112  97.600 135.576  1.00  0.00    -0.281 N 
ATOM      7  C   UNL     1     141.725  97.026 134.432  1.00  0.00     0.058 A 
ATOM      8  C   UNL     1     142.973  96.392 134.572  1.00  0.00     0.029 A 
ATOM      9  C   UNL     1     143.631  95.860 133.462  1.00  0.00     0.023 A 
ATOM     10  C   UNL     1     143.056  95.965 132.202  1.00  0.00     0.041 A 
ATOM     11  Cl  UNL     1     143.872  95.319 130.833  1.00  0.00    -0.084 Cl
ATOM     12  C   UNL     1     141.823  96.592 132.041  1.00  0.00     0.033 A 
ATOM     13  C   UNL     1     141.140  97.124 133.151  1.00  0.00     0.026 A 
ATOM     14  C   UNL     1     139.771  97.682 132.906  1.00  0.00     0.076 C 
ATOM     15  N   UNL     1     139.272  98.739 133.446  1.00  0.00    -0.276 NA
ATOM     16  C   UNL     1     140.069  99.534 134.369  1.00  0.00     0.220 C 
ENDROOT
BRANCH  14  17
ATOM     17  C   UNL     1     138.878  96.930 131.987  1.00  0.00     0.019 A 
ATOM     18  C   UNL     1     138.299  95.746 132.462  1.00  0.00     0.012 A 
ATOM     19  C   UNL     1     138.592  97.390 130.697  1.00  0.00     0.050 A 
ATOM     20  C   UNL     1     137.441  95.016 131.639  1.00  0.00     0.001 A 
ATOM     21  C   UNL     1     137.732  96.650 129.879  1.00  0.00     0.021 A 
ATOM     22  C   UNL     1     137.159  95.467 130.350  1.00  0.00     0.002 A 
ATOM     23  Cl  UNL     1     139.314  98.813 130.040  1.00  0.00    -0.084 Cl
ENDBRANCH  14  17
TORSDOF 1
ENDMDL
MODEL 2
REMARK VINA RESULT:    -6.774      2.680      6.248
REMARK INTER + INTRA:          -7.790
REMARK INTER:                  -7.162
REMARK INTRA:                  -0.628
REMARK UNBOUND:                -0.620
REMARK SMILES Cc1nnc2n1-c1ccc(Cl)cc1C(c1ccccc1Cl)=NC2
REMARK SMILES IDX 1 1 2 2 3 3 4 4 5 5 6 6 7 7 8 8 9 9 10 10 11 11 12 12 13 13
REMARK SMILES IDX 14 14 22 15 23 16 15 17 16 18 20 19 17 20 19 21 18 22 21 23
REMARK H PARENT
ROOT
ATOM      1  C   UNL     1     138.080  95.785 130.876  1.00  0.00     0.090 C 
ATOM      2  C   UNL     1     139.542  95.979 130.726  1.00  0.00     0.134 A 
ATOM      3  N   UNL     1     140.294  95.289 129.892  1.00  0.00    -0.135 NA
ATOM      4  N   UNL     1     141.600  95.615 130.122  1.00  0.00    -0.133 NA
ATOM      5  C   UNL     1     141.632  96.504 131.090  1.00  0.00     0.159 A 
ATOM      6  N   UNL     1     140.349  96.811 131.490  1.00  0.00    -0.281 N 
ATOM      7  C   UNL     1     139.992  97.814 132.428  1.00  0.00     0.058 A 
ATOM      8  C   UNL     1     138.807  98.544 132.230  1.00  0.00     0.029 A 
ATOM      9  C   UNL     1     138.448  99.572 133.103  1.00  0.00     0.023 A 
ATOM     10  C   UNL     1     139.274  99.888 134.174  1.00  0.00     0.041 A 
ATOM     11  Cl  UNL     1     138.836 101.162 135.243  1.00  0.00    -0.084 Cl
ATOM     12  C   UNL     1     140.454  99.180 134.386  1.00  0.00     0.033 A 
ATOM     13  C   UNL     1     140.825  98.134 133.523  1.00  0.00     0.026 A 
ATOM     14  C   UNL     1     142.052  97.353 133.886  1.00  0.00     0.076 C 
ATOM     15  N   UNL     1     142.941  96.908 133.068  1.00  0.00    -0.276 NA
ATOM     16  C   UNL     1     142.824  97.180 131.642  1.00  0.00     0.220 C 
ENDROOT
BRANCH  14  17
ATOM     17  C   UNL     1     142.250  97.014 135.319  1.00  0.00     0.019 A 
ATOM     18  C   UNL     1     143.174  97.772 136.049  1.00  0.00     0.012 A 
ATOM     19  C   UNL     1     141.525  95.991 135.941  1.00  0.00     0.050 A 
ATOM     20  C   UNL     1     143.381  97.499 137.401  1.00  0.00     0.001 A 
ATOM     21  C   UNL     1     141.740  95.724 137.296  1.00  0.00     0.021 A 
ATOM     22  C   UNL     1     142.665  96.475 138.023  1.00  0.00     0.002 A 
ATOM     23  Cl  UNL     1     140.410  94.991 135.082  1.00  0.00    -0.084 Cl
ENDBRANCH  14  17
TORSDOF 1
ENDMDL
MODEL 3
REMARK VINA RESULT:    -6.758      2.963      6.040
REMARK INTER + INTRA:          -7.773
REMARK INTER:                  -7.140
REMARK INTRA:                  -0.634
REMARK UNBOUND:                -0.620
REMARK SMILES Cc1nnc2n1-c1ccc(Cl)cc1C(c1ccccc1Cl)=NC2
REMARK SMILES IDX 1 1 2 2 3 3 4 4 5 5 6 6 7 7 8 8 9 9 10 10 11 11 12 12 13 13
REMARK SMILES IDX 14 14 22 15 23 16 15 17 16 18 20 19 17 20 19 21 18 22 21 23
REMARK H PARENT
ROOT
ATOM      1  C   UNL     1     139.194  97.751 133.615  1.00  0.00     0.090 C 
ATOM      2  C   UNL     1     140.449  98.159 132.940  1.00  0.00     0.134 A 
ATOM      3  N   UNL     1     140.506  98.622 131.708  1.00  0.00    -0.135 NA
ATOM      4  N   UNL     1     141.819  98.750 131.357  1.00  0.00    -0.133 NA
ATOM      5  C   UNL     1     142.551  98.368 132.380  1.00  0.00     0.159 A 
ATOM      6  N   UNL     1     141.738  98.019 133.437  1.00  0.00    -0.281 N 
ATOM      7  C   UNL     1     142.179  97.672 134.741  1.00  0.00     0.058 A 
ATOM      8  C   UNL     1     141.404  98.059 135.848  1.00  0.00     0.029 A 
ATOM      9  C   UNL     1     141.830  97.780 137.148  1.00  0.00     0.023 A 
ATOM     10  C   UNL     1     143.036  97.122 137.354  1.00  0.00     0.041 A 
ATOM     11  Cl  UNL     1     143.564  96.787 138.956  1.00  0.00    -0.084 Cl
ATOM     12  C   UNL     1     143.819  96.733 136.270  1.00  0.00     0.033 A 
ATOM     13  C   UNL     1     143.400  96.996 134.953  1.00  0.00     0.026 A 
ATOM     14  C   UNL     1     144.247  96.448 133.846  1.00  0.00     0.076 C 
ATOM     15  N   UNL     1     144.524  97.037 132.735  1.00  0.00    -0.276 NA
ATOM     16  C   UNL     1     144.025  98.380 132.477  1.00  0.00     0.220 C 
ENDROOT
BRANCH  14  17
ATOM     17  C   UNL     1     144.790  95.074 134.013  1.00  0.00     0.019 A 
ATOM     18  C   UNL     1     146.158  94.939 134.283  1.00  0.00     0.012 A 
ATOM     19  C   UNL     1     143.969  93.943 133.933  1.00  0.00     0.050 A 
ATOM     20  C   UNL     1     146.707  93.669 134.462  1.00  0.00     0.001 A 
ATOM     21  C   UNL     1     144.528  92.675 134.113  1.00  0.00     0.021 A 
ATOM     22  C   UNL     1     145.893  92.539 134.376  1.00  0.00     0.002 A 
ATOM     23  Cl  UNL     1     142.288  94.044 133.554  1.00  0.00    -0.084 Cl
ENDBRANCH  14  17
TORSDOF 1
ENDMDL
MODEL 4
REMARK VINA RESULT:    -6.671      2.976      4.687
REMARK INTER + INTRA:          -7.681
REMARK INTER:                  -7.046
REMARK INTRA:                  -0.635
REMARK UNBOUND:                -0.620
REMARK SMILES Cc1nnc2n1-c1ccc(Cl)cc1C(c1ccccc1Cl)=NC2
REMARK SMILES IDX 1 1 2 2 3 3 4 4 5 5 6 6 7 7 8 8 9 9 10 10 11 11 12 12 13 13
REMARK SMILES IDX 14 14 22 15 23 16 15 17 16 18 20 19 17 20 19 21 18 22 21 23
REMARK H PARENT
ROOT
ATOM      1  C   UNL     1     143.781  94.005 135.154  1.00  0.00     0.090 C 
ATOM      2  C   UNL     1     144.319  95.132 134.357  1.00  0.00     0.134 A 
ATOM      3  N   UNL     1     145.550  95.591 134.468  1.00  0.00    -0.135 NA
ATOM      4  N   UNL     1     145.658  96.719 133.707  1.00  0.00    -0.133 NA
ATOM      5  C   UNL     1     144.494  96.934 133.133  1.00  0.00     0.159 A 
ATOM      6  N   UNL     1     143.610  95.934 133.474  1.00  0.00    -0.281 N 
ATOM      7  C   UNL     1     142.300  95.773 132.950  1.00  0.00     0.058 A 
ATOM      8  C   UNL     1     141.805  94.474 132.738  1.00  0.00     0.029 A 
ATOM      9  C   UNL     1     140.542  94.276 132.177  1.00  0.00     0.023 A 
ATOM     10  C   UNL     1     139.768  95.370 131.814  1.00  0.00     0.041 A 
ATOM     11  Cl  UNL     1     138.216  95.125 131.114  1.00  0.00    -0.084 Cl
ATOM     12  C   UNL     1     140.241  96.665 132.012  1.00  0.00     0.033 A 
ATOM     13  C   UNL     1     141.507  96.883 132.586  1.00  0.00     0.026 A 
ATOM     14  C   UNL     1     141.893  98.304 132.866  1.00  0.00     0.076 C 
ATOM     15  N   UNL     1     143.062  98.821 132.709  1.00  0.00    -0.276 NA
ATOM     16  C   UNL     1     144.153  98.013 132.183  1.00  0.00     0.220 C 
ENDROOT
BRANCH  14  17
ATOM     17  C   UNL     1     140.847  99.203 133.420  1.00  0.00     0.019 A 
ATOM     18  C   UNL     1     140.278 100.152 132.561  1.00  0.00     0.012 A 
ATOM     19  C   UNL     1     140.416  99.100 134.748  1.00  0.00     0.050 A 
ATOM     20  C   UNL     1     139.282 101.005 133.035  1.00  0.00     0.001 A 
ATOM     21  C   UNL     1     139.418  99.961 135.214  1.00  0.00     0.021 A 
ATOM     22  C   UNL     1     138.853 100.911 134.360  1.00  0.00     0.002 A 
ATOM     23  Cl  UNL     1     141.115  97.985 135.865  1.00  0.00    -0.084 Cl
ENDBRANCH  14  17
TORSDOF 1
ENDMDL
MODEL 5
REMARK VINA RESULT:    -6.478      2.856      4.811
REMARK INTER + INTRA:          -7.476
REMARK INTER:                  -6.870
REMARK INTRA:                  -0.606
REMARK UNBOUND:                -0.620
REMARK SMILES Cc1nnc2n1-c1ccc(Cl)cc1C(c1ccccc1Cl)=NC2
REMARK SMILES IDX 1 1 2 2 3 3 4 4 5 5 6 6 7 7 8 8 9 9 10 10 11 11 12 12 13 13
REMARK SMILES IDX 14 14 22 15 23 16 15 17 16 18 20 19 17 20 19 21 18 22 21 23
REMARK H PARENT
ROOT
ATOM      1  C   UNL     1     138.540  99.683 133.404  1.00  0.00     0.090 C 
ATOM      2  C   UNL     1     139.814  99.619 132.650  1.00  0.00     0.134 A 
ATOM      3  N   UNL     1     140.025 100.239 131.506  1.00  0.00    -0.135 NA
ATOM      4  N   UNL     1     141.236  99.842 131.019  1.00  0.00    -0.133 NA
ATOM      5  C   UNL     1     141.756  98.987 131.872  1.00  0.00     0.159 A 
ATOM      6  N   UNL     1     140.918  98.834 132.955  1.00  0.00    -0.281 N 
ATOM      7  C   UNL     1     141.205  98.083 134.125  1.00  0.00     0.058 A 
ATOM      8  C   UNL     1     140.738  98.549 135.366  1.00  0.00     0.029 A 
ATOM      9  C   UNL     1     141.043  97.865 136.544  1.00  0.00     0.023 A 
ATOM     10  C   UNL     1     141.824  96.719 136.495  1.00  0.00     0.041 A 
ATOM     11  Cl  UNL     1     142.208  95.882 137.948  1.00  0.00    -0.084 Cl
ATOM     12  C   UNL     1     142.300  96.242 135.276  1.00  0.00     0.033 A 
ATOM     13  C   UNL     1     141.993  96.912 134.078  1.00  0.00     0.026 A 
ATOM     14  C   UNL     1     142.451  96.273 132.802  1.00  0.00     0.076 C 
ATOM     15  N   UNL     1     142.920  96.883 131.770  1.00  0.00    -0.276 NA
ATOM     16  C   UNL     1     143.077  98.330 131.785  1.00  0.00     0.220 C 
ENDROOT
BRANCH  14  17
ATOM     17  C   UNL     1     142.316  94.797 132.687  1.00  0.00     0.019 A 
ATOM     18  C   UNL     1     143.452  94.015 132.929  1.00  0.00     0.012 A 
ATOM     19  C   UNL     1     141.093  94.193 132.375  1.00  0.00     0.050 A 
ATOM     20  C   UNL     1     143.366  92.625 132.847  1.00  0.00     0.001 A 
ATOM     21  C   UNL     1     141.017  92.799 132.294  1.00  0.00     0.021 A 
ATOM     22  C   UNL     1     142.151  92.018 132.529  1.00  0.00     0.002 A 
ATOM     23  Cl  UNL     1     139.672  95.106 132.019  1.00  0.00    -0.084 Cl
ENDBRANCH  14  17
TORSDOF 1
ENDMDL
MODEL 6
REMARK VINA RESULT:    -6.307      2.881      5.839
REMARK INTER + INTRA:          -7.295
REMARK INTER:                  -6.665
REMARK INTRA:                  -0.631
REMARK UNBOUND:                -0.620
REMARK SMILES Cc1nnc2n1-c1ccc(Cl)cc1C(c1ccccc1Cl)=NC2
REMARK SMILES IDX 1 1 2 2 3 3 4 4 5 5 6 6 7 7 8 8 9 9 10 10 11 11 12 12 13 13
REMARK SMILES IDX 14 14 22 15 23 16 15 17 16 18 20 19 17 20 19 21 18 22 21 23
REMARK H PARENT
ROOT
ATOM      1  C   UNL     1     138.908  98.227 130.765  1.00  0.00     0.090 C 
ATOM      2  C   UNL     1     139.215  96.846 131.204  1.00  0.00     0.134 A 
ATOM      3  N   UNL     1     138.484  95.794 130.892  1.00  0.00    -0.135 NA
ATOM      4  N   UNL     1     138.963  94.719 131.584  1.00  0.00    -0.133 NA
ATOM      5  C   UNL     1     139.984  95.123 132.308  1.00  0.00     0.159 A 
ATOM      6  N   UNL     1     140.223  96.460 132.078  1.00  0.00    -0.281 N 
ATOM      7  C   UNL     1     141.315  97.206 132.593  1.00  0.00     0.058 A 
ATOM      8  C   UNL     1     141.891  98.212 131.796  1.00  0.00     0.029 A 
ATOM      9  C   UNL     1     142.998  98.932 132.248  1.00  0.00     0.023 A 
ATOM     10  C   UNL     1     143.546  98.649 133.492  1.00  0.00     0.041 A 
ATOM     11  Cl  UNL     1     144.916  99.530 134.044  1.00  0.00    -0.084 Cl
ATOM     12  C   UNL     1     142.992  97.655 134.296  1.00  0.00     0.033 A 
ATOM     13  C   UNL     1     141.870  96.927 133.861  1.00  0.00     0.026 A 
ATOM     14  C   UNL     1     141.271  95.954 134.831  1.00  0.00     0.076 C 
ATOM     15  N   UNL     1     140.797  94.791 134.548  1.00  0.00    -0.276 NA
ATOM     16  C   UNL     1     140.844  94.296 133.179  1.00  0.00     0.220 C 
ENDROOT
BRANCH  14  17
ATOM     17  C   UNL     1     141.167  96.377 136.252  1.00  0.00     0.019 A 
ATOM     18  C   UNL     1     140.133  97.257 136.598  1.00  0.00     0.012 A 
ATOM     19  C   UNL     1     142.049  95.900 137.228  1.00  0.00     0.050 A 
ATOM     20  C   UNL     1     139.989  97.668 137.924  1.00  0.00     0.001 A 
ATOM     21  C   UNL     1     141.897  96.319 138.553  1.00  0.00     0.021 A 
ATOM     22  C   UNL     1     140.870  97.200 138.899  1.00  0.00     0.002 A 
ATOM     23  Cl  UNL     1     143.370  94.855 136.853  1.00  0.00    -0.084 Cl
ENDBRANCH  14  17
TORSDOF 1
ENDMDL
MODEL 7
REMARK VINA RESULT:    -6.263      3.177      4.877
REMARK INTER + INTRA:          -7.249
REMARK INTER:                  -6.626
REMARK INTRA:                  -0.624
REMARK UNBOUND:                -0.620
REMARK SMILES Cc1nnc2n1-c1ccc(Cl)cc1C(c1ccccc1Cl)=NC2
REMARK SMILES IDX 1 1 2 2 3 3 4 4 5 5 6 6 7 7 8 8 9 9 10 10 11 11 12 12 13 13
REMARK SMILES IDX 14 14 22 15 23 16 15 17 16 18 20 19 17 20 19 21 18 22 21 23
REMARK H PARENT
ROOT
ATOM      1  C   UNL     1     145.442  94.980 135.941  1.00  0.00     0.090 C 
ATOM      2  C   UNL     1     144.453  94.299 135.072  1.00  0.00     0.134 A 
ATOM      3  N   UNL     1     144.763  93.364 134.197  1.00  0.00    -0.135 NA
ATOM      4  N   UNL     1     143.647  93.071 133.468  1.00  0.00    -0.133 NA
ATOM      5  C   UNL     1     142.665  93.826 133.909  1.00  0.00     0.159 A 
ATOM      6  N   UNL     1     143.103  94.602 134.960  1.00  0.00    -0.281 N 
ATOM      7  C   UNL     1     142.291  95.450 135.758  1.00  0.00     0.058 A 
ATOM      8  C   UNL     1     142.578  95.577 137.129  1.00  0.00     0.029 A 
ATOM      9  C   UNL     1     141.772  96.361 137.956  1.00  0.00     0.023 A 
ATOM     10  C   UNL     1     140.669  97.016 137.425  1.00  0.00     0.041 A 
ATOM     11  Cl  UNL     1     139.671  97.974 138.447  1.00  0.00    -0.084 Cl
ATOM     12  C   UNL     1     140.365  96.901 136.071  1.00  0.00     0.033 A 
ATOM     13  C   UNL     1     141.173  96.124 135.221  1.00  0.00     0.026 A 
ATOM     14  C   UNL     1     140.840  96.142 133.760  1.00  0.00     0.076 C 
ATOM     15  N   UNL     1     140.887  95.138 132.955  1.00  0.00    -0.276 NA
ATOM     16  C   UNL     1     141.260  93.821 133.452  1.00  0.00     0.220 C 
ENDROOT
BRANCH  14  17
ATOM     17  C   UNL     1     140.462  97.448 133.159  1.00  0.00     0.019 A 
ATOM     18  C   UNL     1     139.101  97.697 132.939  1.00  0.00     0.012 A 
ATOM     19  C   UNL     1     141.420  98.418 132.842  1.00  0.00     0.050 A 
ATOM     20  C   UNL     1     138.700  98.915 132.391  1.00  0.00     0.001 A 
ATOM     21  C   UNL     1     141.008  99.635 132.292  1.00  0.00     0.021 A 
ATOM     22  C   UNL     1     139.652  99.883 132.067  1.00  0.00     0.002 A 
ATOM     23  Cl  UNL     1     143.113  98.149 133.044  1.00  0.00    -0.084 Cl
ENDBRANCH  14  17
TORSDOF 1
ENDMDL
MODEL 8
REMARK VINA RESULT:    -6.237      2.824      5.847
REMARK INTER + INTRA:          -7.222
REMARK INTER:                  -6.735
REMARK INTRA:                  -0.487
REMARK UNBOUND:                -0.620
REMARK SMILES Cc1nnc2n1-c1ccc(Cl)cc1C(c1ccccc1Cl)=NC2
REMARK SMILES IDX 1 1 2 2 3 3 4 4 5 5 6 6 7 7 8 8 9 9 10 10 11 11 12 12 13 13
REMARK SMILES IDX 14 14 22 15 23 16 15 17 16 18 20 19 17 20 19 21 18 22 21 23
REMARK H PARENT
ROOT
ATOM      1  C   UNL     1     143.990  93.756 131.574  1.00  0.00     0.090 C 
ATOM      2  C   UNL     1     144.189  95.213 131.753  1.00  0.00     0.134 A 
ATOM      3  N   UNL     1     145.332  95.833 131.536  1.00  0.00    -0.135 NA
ATOM      4  N   UNL     1     145.202  97.129 131.945  1.00  0.00    -0.133 NA
ATOM      5  C   UNL     1     143.980  97.290 132.402  1.00  0.00     0.159 A 
ATOM      6  N   UNL     1     143.269  96.117 132.269  1.00  0.00    -0.281 N 
ATOM      7  C   UNL     1     141.887  95.950 132.547  1.00  0.00     0.058 A 
ATOM      8  C   UNL     1     141.130  95.081 131.742  1.00  0.00     0.029 A 
ATOM      9  C   UNL     1     139.758  94.929 131.952  1.00  0.00     0.023 A 
ATOM     10  C   UNL     1     139.130  95.650 132.959  1.00  0.00     0.041 A 
ATOM     11  Cl  UNL     1     137.438  95.470 133.211  1.00  0.00    -0.084 Cl
ATOM     12  C   UNL     1     139.861  96.518 133.766  1.00  0.00     0.033 A 
ATOM     13  C   UNL     1     141.247  96.675 133.575  1.00  0.00     0.026 A 
ATOM     14  C   UNL     1     141.976  97.543 134.555  1.00  0.00     0.076 C 
ATOM     15  N   UNL     1     142.930  98.364 134.283  1.00  0.00    -0.276 NA
ATOM     16  C   UNL     1     143.372  98.539 132.906  1.00  0.00     0.220 C 
ENDROOT
BRANCH  14  17
ATOM     17  C   UNL     1     141.603  97.423 135.988  1.00  0.00     0.019 A 
ATOM     18  C   UNL     1     140.595  98.265 136.475  1.00  0.00     0.012 A 
ATOM     19  C   UNL     1     142.210  96.485 136.831  1.00  0.00     0.050 A 
ATOM     20  C   UNL     1     140.202  98.176 137.810  1.00  0.00     0.001 A 
ATOM     21  C   UNL     1     141.811  96.404 138.168  1.00  0.00     0.021 A 
ATOM     22  C   UNL     1     140.810  97.247 138.656  1.00  0.00     0.002 A 
ATOM     23  Cl  UNL     1     143.491  95.456 136.302  1.00  0.00    -0.084 Cl
ENDBRANCH  14  17
TORSDOF 1
ENDMDL
MODEL 9
REMARK VINA RESULT:    -6.197      2.997      6.129
REMARK INTER + INTRA:          -7.179
REMARK INTER:                  -8.181
REMARK INTRA:                   1.002
REMARK UNBOUND:                -0.620
REMARK SMILES Cc1nnc2n1-c1ccc(Cl)cc1C(c1ccccc1Cl)=NC2
REMARK SMILES IDX 1 1 2 2 3 3 4 4 5 5 6 6 7 7 8 8 9 9 10 10 11 11 12 12 13 13
REMARK SMILES IDX 14 14 22 15 23 16 15 17 16 18 20 19 17 20 19 21 18 22 21 23
REMARK H PARENT
ROOT
ATOM      1  C   UNL     1     142.084  95.625 130.692  1.00  0.00     0.090 C 
ATOM      2  C   UNL     1     143.103  96.403 131.435  1.00  0.00     0.134 A 
ATOM      3  N   UNL     1     144.399  96.173 131.368  1.00  0.00    -0.135 NA
ATOM      4  N   UNL     1     145.024  96.965 132.288  1.00  0.00    -0.133 NA
ATOM      5  C   UNL     1     144.104  97.674 132.904  1.00  0.00     0.159 A 
ATOM      6  N   UNL     1     142.862  97.395 132.377  1.00  0.00    -0.281 N 
ATOM      7  C   UNL     1     141.652  98.056 132.713  1.00  0.00     0.058 A 
ATOM      8  C   UNL     1     140.689  98.268 131.710  1.00  0.00     0.029 A 
ATOM      9  C   UNL     1     139.509  98.959 131.991  1.00  0.00     0.023 A 
ATOM     10  C   UNL     1     139.285  99.453 133.269  1.00  0.00     0.041 A 
ATOM     11  Cl  UNL     1     137.835 100.313 133.610  1.00  0.00    -0.084 Cl
ATOM     12  C   UNL     1     140.227  99.257 134.275  1.00  0.00     0.033 A 
ATOM     13  C   UNL     1     141.417  98.554 134.013  1.00  0.00     0.026 A 
ATOM     14  C   UNL     1     142.325  98.293 135.176  1.00  0.00     0.076 C 
ATOM     15  N   UNL     1     143.611  98.338 135.164  1.00  0.00    -0.276 NA
ATOM     16  C   UNL     1     144.318  98.702 133.944  1.00  0.00     0.220 C 
ENDROOT
BRANCH  14  17
ATOM     17  C   UNL     1     141.695  97.899 136.464  1.00  0.00     0.019 A 
ATOM     18  C   UNL     1     140.464  98.480 136.795  1.00  0.00     0.012 A 
ATOM     19  C   UNL     1     142.286  96.959 137.316  1.00  0.00     0.050 A 
ATOM     20  C   UNL     1     139.829  98.127 137.986  1.00  0.00     0.001 A 
ATOM     21  C   UNL     1     141.643  96.613 138.508  1.00  0.00     0.021 A 
ATOM     22  C   UNL     1     140.418  97.196 138.841  1.00  0.00     0.002 A 
ATOM     23  Cl  UNL     1     143.824  96.247 136.986  1.00  0.00    -0.084 Cl
ENDBRANCH  14  17
TORSDOF 1
ENDMDL
