MODEL 1
REMARK VINA RESULT:    -8.090      0.000      0.000
REMARK INTER + INTRA:         -10.042
REMARK INTER:                  -9.509
REMARK INTRA:                  -0.534
REMARK UNBOUND:                -0.534
REMARK SMILES CN1CCN(C(=O)OC2c3nccnc3C(=O)N2c2ccc(Cl)cn2)CC1
REMARK SMILES IDX 9 1 10 2 11 3 12 4 13 5 14 6 15 7 16 8 17 9 18 10 8 11 6 12
REMARK SMILES IDX 2 13 3 14 27 15 4 16 26 17 5 18 7 19 1 20 19 21 20 22 25 23
REMARK SMILES IDX 21 24 24 25 22 26 23 27
REMARK H PARENT
ROOT
ATOM      1  C   UNL     1     144.213  96.596 141.465  1.00  0.00     0.338 C 
ATOM      2  C   UNL     1     142.952  95.872 141.868  1.00  0.00     0.134 A 
ATOM      3  N   UNL     1     142.336  94.854 141.224  1.00  0.00    -0.251 NA
ATOM      4  C   UNL     1     141.202  94.425 141.835  1.00  0.00     0.131 A 
ATOM      5  C   UNL     1     140.716  94.988 143.017  1.00  0.00     0.132 A 
ATOM      6  N   UNL     1     141.336  96.011 143.656  1.00  0.00    -0.247 NA
ATOM      7  C   UNL     1     142.458  96.420 143.031  1.00  0.00     0.156 A 
ATOM      8  C   UNL     1     143.357  97.494 143.475  1.00  0.00     0.283 C 
ATOM      9  O   UNL     1     143.180  98.152 144.485  1.00  0.00    -0.267 OA
ATOM     10  N   UNL     1     144.392  97.554 142.551  1.00  0.00    -0.248 N 
ENDROOT
BRANCH   1  11
ATOM     11  O   UNL     1     143.963  97.312 140.259  1.00  0.00    -0.419 OA
BRANCH  11  12
ATOM     12  C   UNL     1     144.488  96.732 139.151  1.00  0.00     0.412 C 
ATOM     13  N   UNL     1     141.820  96.970 135.735  1.00  0.00    -0.303 NA
ATOM     14  C   UNL     1     141.318  96.681 137.094  1.00  0.00     0.106 C 
ATOM     15  C   UNL     1     143.294  96.903 135.647  1.00  0.00     0.106 C 
ATOM     16  C   UNL     1     142.227  97.230 138.206  1.00  0.00     0.138 C 
ATOM     17  C   UNL     1     143.993  96.172 136.809  1.00  0.00     0.138 C 
ATOM     18  N   UNL     1     143.590  96.704 138.106  1.00  0.00    -0.306 N 
ATOM     19  O   UNL     1     145.627  96.287 139.081  1.00  0.00    -0.224 OA
ATOM     20  C   UNL     1     141.174  96.105 134.750  1.00  0.00     0.105 C 
ENDBRANCH  11  12
ENDBRANCH   1  11
BRANCH  10  21
ATOM     21  C   UNL     1     145.534  98.372 142.588  1.00  0.00     0.138 A 
ATOM     22  C   UNL     1     145.622  99.493 143.410  1.00  0.00     0.049 A 
ATOM     23  N   UNL     1     146.564  98.011 141.786  1.00  0.00    -0.237 NA
ATOM     24  C   UNL     1     146.787 100.266 143.405  1.00  0.00     0.026 A 
ATOM     25  C   UNL     1     147.685  98.776 141.795  1.00  0.00     0.134 A 
ATOM     26  C   UNL     1     147.840  99.901 142.582  1.00  0.00     0.059 A 
ATOM     27  Cl  UNL     1     149.286 100.820 142.542  1.00  0.00    -0.083 Cl
ENDBRANCH  10  21
TORSDOF 3
ENDMDL
MODEL 2
REMARK VINA RESULT:    -7.691      4.083      6.300
REMARK INTER + INTRA:          -9.574
REMARK INTER:                  -8.619
REMARK INTRA:                  -0.955
REMARK UNBOUND:                -0.534
REMARK SMILES CN1CCN(C(=O)OC2c3nccnc3C(=O)N2c2ccc(Cl)cn2)CC1
REMARK SMILES IDX 9 1 10 2 11 3 12 4 13 5 14 6 15 7 16 8 17 9 18 10 8 11 6 12
REMARK SMILES IDX 2 13 3 14 27 15 4 16 26 17 5 18 7 19 1 20 19 21 20 22 25 23
REMARK SMILES IDX 21 24 24 25 22 26 23 27
REMARK H PARENT
ROOT
ATOM      1  C   UNL     1     142.087  96.138 137.921  1.00  0.00     0.338 C 
ATOM      2  C   UNL     1     142.198  96.110 139.426  1.00  0.00     0.134 A 
ATOM      3  N   UNL     1     141.269  96.485 140.335  1.00  0.00    -0.251 NA
ATOM      4  C   UNL     1     141.679  96.356 141.623  1.00  0.00     0.131 A 
ATOM      5  C   UNL     1     142.945  95.881 141.973  1.00  0.00     0.132 A 
ATOM      6  N   UNL     1     143.873  95.509 141.057  1.00  0.00    -0.247 NA
ATOM      7  C   UNL     1     143.445  95.647 139.787  1.00  0.00     0.156 A 
ATOM      8  C   UNL     1     144.206  95.320 138.573  1.00  0.00     0.283 C 
ATOM      9  O   UNL     1     145.340  94.878 138.583  1.00  0.00    -0.267 OA
ATOM     10  N   UNL     1     143.372  95.592 137.496  1.00  0.00    -0.248 N 
ENDROOT
BRANCH   1  11
ATOM     11  O   UNL     1     142.001  97.494 137.495  1.00  0.00    -0.419 OA
BRANCH  11  12
ATOM     12  C   UNL     1     140.799  97.834 136.966  1.00  0.00     0.412 C 
ATOM     13  N   UNL     1     141.036  98.634 132.705  1.00  0.00    -0.303 NA
ATOM     14  C   UNL     1     142.085  99.089 133.640  1.00  0.00     0.106 C 
ATOM     15  C   UNL     1     139.830  98.137 133.402  1.00  0.00     0.106 C 
ATOM     16  C   UNL     1     142.174  98.234 134.915  1.00  0.00     0.138 C 
ATOM     17  C   UNL     1     139.706  98.545 134.882  1.00  0.00     0.138 C 
ATOM     18  N   UNL     1     140.904  98.203 135.641  1.00  0.00    -0.306 N 
ATOM     19  O   UNL     1     139.743  97.813 137.585  1.00  0.00    -0.224 OA
ATOM     20  C   UNL     1     140.714  99.681 131.739  1.00  0.00     0.105 C 
ENDBRANCH  11  12
ENDBRANCH   1  11
BRANCH  10  21
ATOM     21  C   UNL     1     143.625  95.368 136.132  1.00  0.00     0.138 A 
ATOM     22  C   UNL     1     142.768  94.622 135.326  1.00  0.00     0.049 A 
ATOM     23  N   UNL     1     144.751  95.926 135.626  1.00  0.00    -0.237 NA
ATOM     24  C   UNL     1     143.074  94.438 133.974  1.00  0.00     0.026 A 
ATOM     25  C   UNL     1     145.030  95.734 134.311  1.00  0.00     0.134 A 
ATOM     26  C   UNL     1     144.226  95.004 133.455  1.00  0.00     0.059 A 
ATOM     27  Cl  UNL     1     144.641  94.803 131.805  1.00  0.00    -0.083 Cl
ENDBRANCH  10  21
TORSDOF 3
ENDMDL
MODEL 3
REMARK VINA RESULT:    -7.573      3.217      5.949
REMARK INTER + INTRA:          -9.435
REMARK INTER:                  -9.140
REMARK INTRA:                  -0.295
REMARK UNBOUND:                -0.534
REMARK SMILES CN1CCN(C(=O)OC2c3nccnc3C(=O)N2c2ccc(Cl)cn2)CC1
REMARK SMILES IDX 9 1 10 2 11 3 12 4 13 5 14 6 15 7 16 8 17 9 18 10 8 11 6 12
REMARK SMILES IDX 2 13 3 14 27 15 4 16 26 17 5 18 7 19 1 20 19 21 20 22 25 23
REMARK SMILES IDX 21 24 24 25 22 26 23 27
REMARK H PARENT
ROOT
ATOM      1  C   UNL     1     142.997  97.068 137.414  1.00  0.00     0.338 C 
ATOM      2  C   UNL     1     143.781  96.702 136.178  1.00  0.00     0.134 A 
ATOM      3  N   UNL     1     143.640  97.199 134.927  1.00  0.00    -0.251 NA
ATOM      4  C   UNL     1     144.490  96.650 134.021  1.00  0.00     0.131 A 
ATOM      5  C   UNL     1     145.420  95.663 134.353  1.00  0.00     0.132 A 
ATOM      6  N   UNL     1     145.555  95.166 135.607  1.00  0.00    -0.247 NA
ATOM      7  C   UNL     1     144.701  95.724 136.488  1.00  0.00     0.156 A 
ATOM      8  C   UNL     1     144.605  95.413 137.922  1.00  0.00     0.283 C 
ATOM      9  O   UNL     1     145.305  94.592 138.485  1.00  0.00    -0.267 OA
ATOM     10  N   UNL     1     143.616  96.238 138.442  1.00  0.00    -0.248 N 
ENDROOT
BRANCH   1  11
ATOM     11  O   UNL     1     141.647  96.651 137.239  1.00  0.00    -0.419 OA
BRANCH  11  12
ATOM     12  C   UNL     1     140.911  97.471 136.448  1.00  0.00     0.412 C 
ATOM     13  N   UNL     1     139.025  95.349 133.164  1.00  0.00    -0.303 NA
ATOM     14  C   UNL     1     140.406  95.047 133.591  1.00  0.00     0.106 C 
ATOM     15  C   UNL     1     138.493  96.581 133.785  1.00  0.00     0.106 C 
ATOM     16  C   UNL     1     140.676  95.402 135.063  1.00  0.00     0.138 C 
ATOM     17  C   UNL     1     139.547  97.518 134.403  1.00  0.00     0.138 C 
ATOM     18  N   UNL     1     140.415  96.815 135.342  1.00  0.00    -0.306 N 
ATOM     19  O   UNL     1     140.705  98.655 136.686  1.00  0.00    -0.224 OA
ATOM     20  C   UNL     1     138.931  95.388 131.707  1.00  0.00     0.105 C 
ENDBRANCH  11  12
ENDBRANCH   1  11
BRANCH  10  21
ATOM     21  C   UNL     1     143.215  96.361 139.783  1.00  0.00     0.138 A 
ATOM     22  C   UNL     1     141.951  95.974 140.222  1.00  0.00     0.049 A 
ATOM     23  N   UNL     1     144.127  96.871 140.645  1.00  0.00    -0.237 NA
ATOM     24  C   UNL     1     141.612  96.117 141.571  1.00  0.00     0.026 A 
ATOM     25  C   UNL     1     143.778  97.003 141.949  1.00  0.00     0.134 A 
ATOM     26  C   UNL     1     142.542  96.642 142.453  1.00  0.00     0.059 A 
ATOM     27  Cl  UNL     1     142.169  96.837 144.114  1.00  0.00    -0.083 Cl
ENDBRANCH  10  21
TORSDOF 3
ENDMDL
MODEL 4
REMARK VINA RESULT:    -7.422      4.478      6.818
REMARK INTER + INTRA:          -9.258
REMARK INTER:                  -8.291
REMARK INTRA:                  -0.967
REMARK UNBOUND:                -0.534
REMARK SMILES CN1CCN(C(=O)OC2c3nccnc3C(=O)N2c2ccc(Cl)cn2)CC1
REMARK SMILES IDX 9 1 10 2 11 3 12 4 13 5 14 6 15 7 16 8 17 9 18 10 8 11 6 12
REMARK SMILES IDX 2 13 3 14 27 15 4 16 26 17 5 18 7 19 1 20 19 21 20 22 25 23
REMARK SMILES IDX 21 24 24 25 22 26 23 27
REMARK H PARENT
ROOT
ATOM      1  C   UNL     1     142.932  96.728 136.966  1.00  0.00     0.338 C 
ATOM      2  C   UNL     1     142.856  96.364 138.429  1.00  0.00     0.134 A 
ATOM      3  N   UNL     1     143.807  95.774 139.189  1.00  0.00    -0.251 NA
ATOM      4  C   UNL     1     143.427  95.562 140.475  1.00  0.00     0.131 A 
ATOM      5  C   UNL     1     142.169  95.918 140.964  1.00  0.00     0.132 A 
ATOM      6  N   UNL     1     141.218  96.506 140.197  1.00  0.00    -0.247 NA
ATOM      7  C   UNL     1     141.617  96.705 138.925  1.00  0.00     0.156 A 
ATOM      8  C   UNL     1     140.827  97.329 137.854  1.00  0.00     0.283 C 
ATOM      9  O   UNL     1     139.692  97.743 138.003  1.00  0.00    -0.267 OA
ATOM     10  N   UNL     1     141.636  97.354 136.725  1.00  0.00    -0.248 N 
ENDROOT
BRANCH   1  11
ATOM     11  O   UNL     1     143.013  95.530 136.201  1.00  0.00    -0.419 OA
BRANCH  11  12
ATOM     12  C   UNL     1     144.157  95.406 135.484  1.00  0.00     0.412 C 
ATOM     13  N   UNL     1     143.410  95.111 131.217  1.00  0.00    -0.303 NA
ATOM     14  C   UNL     1     142.555  94.422 132.204  1.00  0.00     0.106 C 
ATOM     15  C   UNL     1     144.643  95.662 131.818  1.00  0.00     0.106 C 
ATOM     16  C   UNL     1     142.557  95.097 133.586  1.00  0.00     0.138 C 
ATOM     17  C   UNL     1     145.015  95.094 133.201  1.00  0.00     0.138 C 
ATOM     18  N   UNL     1     143.907  95.192 134.145  1.00  0.00    -0.306 N 
ATOM     19  O   UNL     1     145.282  95.479 135.962  1.00  0.00    -0.224 OA
ATOM     20  C   UNL     1     143.699  94.237 130.083  1.00  0.00     0.105 C 
ENDBRANCH  11  12
ENDBRANCH   1  11
BRANCH  10  21
ATOM     21  C   UNL     1     141.350  97.922 135.472  1.00  0.00     0.138 A 
ATOM     22  C   UNL     1     140.083  97.858 134.897  1.00  0.00     0.049 A 
ATOM     23  N   UNL     1     142.372  98.551 134.845  1.00  0.00    -0.237 NA
ATOM     24  C   UNL     1     139.859  98.446 133.648  1.00  0.00     0.026 A 
ATOM     25  C   UNL     1     142.134  99.114 133.633  1.00  0.00     0.134 A 
ATOM     26  C   UNL     1     140.904  99.087 133.002  1.00  0.00     0.059 A 
ATOM     27  Cl  UNL     1     140.676  99.820 131.470  1.00  0.00    -0.083 Cl
ENDBRANCH  10  21
TORSDOF 3
ENDMDL
MODEL 5
REMARK VINA RESULT:    -6.974      4.170      7.409
REMARK INTER + INTRA:          -8.731
REMARK INTER:                  -7.773
REMARK INTRA:                  -0.958
REMARK UNBOUND:                -0.534
REMARK SMILES CN1CCN(C(=O)OC2c3nccnc3C(=O)N2c2ccc(Cl)cn2)CC1
REMARK SMILES IDX 9 1 10 2 11 3 12 4 13 5 14 6 15 7 16 8 17 9 18 10 8 11 6 12
REMARK SMILES IDX 2 13 3 14 27 15 4 16 26 17 5 18 7 19 1 20 19 21 20 22 25 23
REMARK SMILES IDX 21 24 24 25 22 26 23 27
REMARK H PARENT
ROOT
ATOM      1  C   UNL     1     144.030  96.496 135.129  1.00  0.00     0.338 C 
ATOM      2  C   UNL     1     144.829  96.053 133.929  1.00  0.00     0.134 A 
ATOM      3  N   UNL     1     144.804  96.568 132.677  1.00  0.00    -0.251 NA
ATOM      4  C   UNL     1     145.633  95.935 131.808  1.00  0.00     0.131 A 
ATOM      5  C   UNL     1     146.435  94.852 132.173  1.00  0.00     0.132 A 
ATOM      6  N   UNL     1     146.454  94.338 133.428  1.00  0.00    -0.247 NA
ATOM      7  C   UNL     1     145.623  94.980 134.273  1.00  0.00     0.156 A 
ATOM      8  C   UNL     1     145.424  94.675 135.697  1.00  0.00     0.283 C 
ATOM      9  O   UNL     1     146.004  93.780 136.284  1.00  0.00    -0.267 OA
ATOM     10  N   UNL     1     144.506  95.599 136.178  1.00  0.00    -0.248 N 
ENDROOT
BRANCH   1  11
ATOM     11  O   UNL     1     142.653  96.227 134.885  1.00  0.00    -0.419 OA
BRANCH  11  12
ATOM     12  C   UNL     1     141.872  97.335 134.843  1.00  0.00     0.412 C 
ATOM     13  N   UNL     1     139.311  97.418 131.338  1.00  0.00    -0.303 NA
ATOM     14  C   UNL     1     140.712  96.958 131.264  1.00  0.00     0.106 C 
ATOM     15  C   UNL     1     138.990  98.064 132.629  1.00  0.00     0.106 C 
ATOM     16  C   UNL     1     141.245  96.418 132.602  1.00  0.00     0.138 C 
ATOM     17  C   UNL     1     140.206  98.506 133.466  1.00  0.00     0.138 C 
ATOM     18  N   UNL     1     141.151  97.414 133.670  1.00  0.00    -0.306 N 
ATOM     19  O   UNL     1     141.806  98.167 135.739  1.00  0.00    -0.224 OA
ATOM     20  C   UNL     1     138.987  98.278 130.202  1.00  0.00     0.105 C 
ENDBRANCH  11  12
ENDBRANCH   1  11
BRANCH  10  21
ATOM     21  C   UNL     1     144.056  95.758 137.499  1.00  0.00     0.138 A 
ATOM     22  C   UNL     1     142.866  95.194 137.955  1.00  0.00     0.049 A 
ATOM     23  N   UNL     1     144.845  96.486 138.325  1.00  0.00    -0.237 NA
ATOM     24  C   UNL     1     142.473  95.385 139.283  1.00  0.00     0.026 A 
ATOM     25  C   UNL     1     144.444  96.660 139.610  1.00  0.00     0.134 A 
ATOM     26  C   UNL     1     143.277  96.132 140.128  1.00  0.00     0.059 A 
ATOM     27  Cl  UNL     1     142.834  96.393 141.763  1.00  0.00    -0.083 Cl
ENDBRANCH  10  21
TORSDOF 3
ENDMDL
MODEL 6
REMARK VINA RESULT:    -6.886      4.102      6.954
REMARK INTER + INTRA:          -8.628
REMARK INTER:                  -8.004
REMARK INTRA:                  -0.624
REMARK UNBOUND:                -0.534
REMARK SMILES CN1CCN(C(=O)OC2c3nccnc3C(=O)N2c2ccc(Cl)cn2)CC1
REMARK SMILES IDX 9 1 10 2 11 3 12 4 13 5 14 6 15 7 16 8 17 9 18 10 8 11 6 12
REMARK SMILES IDX 2 13 3 14 27 15 4 16 26 17 5 18 7 19 1 20 19 21 20 22 25 23
REMARK SMILES IDX 21 24 24 25 22 26 23 27
REMARK H PARENT
ROOT
ATOM      1  C   UNL     1     141.878  96.268 135.656  1.00  0.00     0.338 C 
ATOM      2  C   UNL     1     141.096  96.886 134.524  1.00  0.00     0.134 A 
ATOM      3  N   UNL     1     141.011  96.460 133.242  1.00  0.00    -0.251 NA
ATOM      4  C   UNL     1     140.236  97.247 132.453  1.00  0.00     0.131 A 
ATOM      5  C   UNL     1     139.589  98.391 132.923  1.00  0.00     0.132 A 
ATOM      6  N   UNL     1     139.680  98.816 134.207  1.00  0.00    -0.247 NA
ATOM      7  C   UNL     1     140.455  98.020 134.971  1.00  0.00     0.156 A 
ATOM      8  C   UNL     1     140.742  98.201 136.401  1.00  0.00     0.283 C 
ATOM      9  O   UNL     1     140.299  99.117 137.071  1.00  0.00    -0.267 OA
ATOM     10  N   UNL     1     141.555  97.141 136.780  1.00  0.00    -0.248 N 
ENDROOT
BRANCH   1  11
ATOM     11  O   UNL     1     143.267  96.384 135.369  1.00  0.00    -0.419 OA
BRANCH  11  12
ATOM     12  C   UNL     1     143.905  95.195 135.225  1.00  0.00     0.412 C 
ATOM     13  N   UNL     1     146.812  95.256 132.001  1.00  0.00    -0.303 NA
ATOM     14  C   UNL     1     145.496  95.914 131.872  1.00  0.00     0.106 C 
ATOM     15  C   UNL     1     146.902  94.393 133.198  1.00  0.00     0.106 C 
ATOM     16  C   UNL     1     144.888  96.326 133.223  1.00  0.00     0.138 C 
ATOM     17  C   UNL     1     145.555  94.011 133.840  1.00  0.00     0.138 C 
ATOM     18  N   UNL     1     144.737  95.184 134.126  1.00  0.00    -0.306 N 
ATOM     19  O   UNL     1     143.764  94.242 135.981  1.00  0.00    -0.224 OA
ATOM     20  C   UNL     1     147.151  94.531 130.779  1.00  0.00     0.105 C 
ENDBRANCH  11  12
ENDBRANCH   1  11
BRANCH  10  21
ATOM     21  C   UNL     1     142.031  96.837 138.067  1.00  0.00     0.138 A 
ATOM     22  C   UNL     1     143.390  96.764 138.362  1.00  0.00     0.049 A 
ATOM     23  N   UNL     1     141.096  96.626 139.025  1.00  0.00    -0.237 NA
ATOM     24  C   UNL     1     143.801  96.461 139.664  1.00  0.00     0.026 A 
ATOM     25  C   UNL     1     141.516  96.333 140.281  1.00  0.00     0.134 A 
ATOM     26  C   UNL     1     142.847  96.241 140.644  1.00  0.00     0.059 A 
ATOM     27  Cl  UNL     1     143.305  95.866 142.252  1.00  0.00    -0.083 Cl
ENDBRANCH  10  21
TORSDOF 3
ENDMDL
MODEL 7
REMARK VINA RESULT:    -6.827      5.095      7.854
REMARK INTER + INTRA:          -8.558
REMARK INTER:                  -8.265
REMARK INTRA:                  -0.293
REMARK UNBOUND:                -0.534
REMARK SMILES CN1CCN(C(=O)OC2c3nccnc3C(=O)N2c2ccc(Cl)cn2)CC1
REMARK SMILES IDX 9 1 10 2 11 3 12 4 13 5 14 6 15 7 16 8 17 9 18 10 8 11 6 12
REMARK SMILES IDX 2 13 3 14 27 15 4 16 26 17 5 18 7 19 1 20 19 21 20 22 25 23
REMARK SMILES IDX 21 24 24 25 22 26 23 27
REMARK H PARENT
ROOT
ATOM      1  C   UNL     1     142.324  97.597 134.137  1.00  0.00     0.338 C 
ATOM      2  C   UNL     1     141.489  98.513 133.276  1.00  0.00     0.134 A 
ATOM      3  N   UNL     1     141.574  98.704 131.940  1.00  0.00    -0.251 NA
ATOM      4  C   UNL     1     140.688  99.614 131.459  1.00  0.00     0.131 A 
ATOM      5  C   UNL     1     139.777 100.291 132.272  1.00  0.00     0.132 A 
ATOM      6  N   UNL     1     139.698 100.098 133.612  1.00  0.00    -0.247 NA
ATOM      7  C   UNL     1     140.587  99.192 134.066  1.00  0.00     0.156 A 
ATOM      8  C   UNL     1     140.745  98.754 135.460  1.00  0.00     0.283 C 
ATOM      9  O   UNL     1     140.072  99.176 136.383  1.00  0.00    -0.267 OA
ATOM     10  N   UNL     1     141.752  97.797 135.464  1.00  0.00    -0.248 N 
ENDROOT
BRANCH   1  11
ATOM     11  O   UNL     1     143.666  98.071 134.139  1.00  0.00    -0.419 OA
BRANCH  11  12
ATOM     12  C   UNL     1     144.422  97.600 133.116  1.00  0.00     0.412 C 
ATOM     13  N   UNL     1     145.876  93.575 133.849  1.00  0.00    -0.303 NA
ATOM     14  C   UNL     1     145.838  94.593 134.918  1.00  0.00     0.106 C 
ATOM     15  C   UNL     1     145.624  94.147 132.509  1.00  0.00     0.106 C 
ATOM     16  C   UNL     1     144.778  95.683 134.682  1.00  0.00     0.138 C 
ATOM     17  C   UNL     1     145.777  95.676 132.404  1.00  0.00     0.138 C 
ATOM     18  N   UNL     1     144.978  96.372 133.407  1.00  0.00    -0.306 N 
ATOM     19  O   UNL     1     144.590  98.189 132.056  1.00  0.00    -0.224 OA
ATOM     20  C   UNL     1     147.127  92.823 133.895  1.00  0.00     0.105 C 
ENDBRANCH  11  12
ENDBRANCH   1  11
BRANCH  10  21
ATOM     21  C   UNL     1     142.209  97.033 136.551  1.00  0.00     0.138 A 
ATOM     22  C   UNL     1     143.025  97.566 137.547  1.00  0.00     0.049 A 
ATOM     23  N   UNL     1     141.809  95.740 136.594  1.00  0.00    -0.237 NA
ATOM     24  C   UNL     1     143.445  96.755 138.606  1.00  0.00     0.026 A 
ATOM     25  C   UNL     1     142.228  94.970 137.630  1.00  0.00     0.134 A 
ATOM     26  C   UNL     1     143.039  95.431 138.650  1.00  0.00     0.059 A 
ATOM     27  Cl  UNL     1     143.531  94.401 139.928  1.00  0.00    -0.083 Cl
ENDBRANCH  10  21
TORSDOF 3
ENDMDL
MODEL 8
REMARK VINA RESULT:    -6.780      4.578      8.971
REMARK INTER + INTRA:          -8.504
REMARK INTER:                  -7.469
REMARK INTRA:                  -1.034
REMARK UNBOUND:                -0.534
REMARK SMILES CN1CCN(C(=O)OC2c3nccnc3C(=O)N2c2ccc(Cl)cn2)CC1
REMARK SMILES IDX 9 1 10 2 11 3 12 4 13 5 14 6 15 7 16 8 17 9 18 10 8 11 6 12
REMARK SMILES IDX 2 13 3 14 27 15 4 16 26 17 5 18 7 19 1 20 19 21 20 22 25 23
REMARK SMILES IDX 21 24 24 25 22 26 23 27
REMARK H PARENT
ROOT
ATOM      1  C   UNL     1     142.954  97.089 134.142  1.00  0.00     0.338 C 
ATOM      2  C   UNL     1     141.705  97.935 134.104  1.00  0.00     0.134 A 
ATOM      3  N   UNL     1     141.215  98.738 135.076  1.00  0.00    -0.251 NA
ATOM      4  C   UNL     1     140.054  99.358 134.741  1.00  0.00     0.131 A 
ATOM      5  C   UNL     1     139.425  99.178 133.507  1.00  0.00     0.132 A 
ATOM      6  N   UNL     1     139.919  98.370 132.538  1.00  0.00    -0.247 NA
ATOM      7  C   UNL     1     141.070  97.765 132.893  1.00  0.00     0.156 A 
ATOM      8  C   UNL     1     141.858  96.842 132.063  1.00  0.00     0.283 C 
ATOM      9  O   UNL     1     141.546  96.512 130.934  1.00  0.00    -0.267 OA
ATOM     10  N   UNL     1     142.972  96.486 132.813  1.00  0.00    -0.248 N 
ENDROOT
BRANCH   1  11
ATOM     11  O   UNL     1     142.780  96.061 135.111  1.00  0.00    -0.419 OA
BRANCH  11  12
ATOM     12  C   UNL     1     143.792  95.968 136.008  1.00  0.00     0.412 C 
ATOM     13  N   UNL     1     142.357  95.614 140.091  1.00  0.00    -0.303 NA
ATOM     14  C   UNL     1     141.719  96.527 139.120  1.00  0.00     0.106 C 
ATOM     15  C   UNL     1     143.641  95.069 139.601  1.00  0.00     0.106 C 
ATOM     16  C   UNL     1     141.917  96.092 137.658  1.00  0.00     0.138 C 
ATOM     17  C   UNL     1     144.270  95.825 138.416  1.00  0.00     0.138 C 
ATOM     18  N   UNL     1     143.333  95.977 137.309  1.00  0.00    -0.306 N 
ATOM     19  O   UNL     1     144.976  95.881 135.706  1.00  0.00    -0.224 OA
ATOM     20  C   UNL     1     142.500  96.261 141.392  1.00  0.00     0.105 C 
ENDBRANCH  11  12
ENDBRANCH   1  11
BRANCH  10  21
ATOM     21  C   UNL     1     144.055  95.682 132.419  1.00  0.00     0.138 A 
ATOM     22  C   UNL     1     145.307  96.213 132.119  1.00  0.00     0.049 A 
ATOM     23  N   UNL     1     143.827  94.348 132.352  1.00  0.00    -0.237 NA
ATOM     24  C   UNL     1     146.347  95.360 131.735  1.00  0.00     0.026 A 
ATOM     25  C   UNL     1     144.849  93.539 131.977  1.00  0.00     0.134 A 
ATOM     26  C   UNL     1     146.115  93.996 131.662  1.00  0.00     0.059 A 
ATOM     27  Cl  UNL     1     147.360  92.915 131.196  1.00  0.00    -0.083 Cl
ENDBRANCH  10  21
TORSDOF 3
ENDMDL
MODEL 9
REMARK VINA RESULT:    -6.755      5.028      8.055
REMARK INTER + INTRA:          -8.473
REMARK INTER:                  -7.417
REMARK INTRA:                  -1.057
REMARK UNBOUND:                -0.534
REMARK SMILES CN1CCN(C(=O)OC2c3nccnc3C(=O)N2c2ccc(Cl)cn2)CC1
REMARK SMILES IDX 9 1 10 2 11 3 12 4 13 5 14 6 15 7 16 8 17 9 18 10 8 11 6 12
REMARK SMILES IDX 2 13 3 14 27 15 4 16 26 17 5 18 7 19 1 20 19 21 20 22 25 23
REMARK SMILES IDX 21 24 24 25 22 26 23 27
REMARK H PARENT
ROOT
ATOM      1  C   UNL     1     143.303  97.066 135.543  1.00  0.00     0.338 C 
ATOM      2  C   UNL     1     143.423  96.699 137.002  1.00  0.00     0.134 A 
ATOM      3  N   UNL     1     144.542  96.369 137.687  1.00  0.00    -0.251 NA
ATOM      4  C   UNL     1     144.318  96.071 138.993  1.00  0.00     0.131 A 
ATOM      5  C   UNL     1     143.048  96.101 139.571  1.00  0.00     0.132 A 
ATOM      6  N   UNL     1     141.929  96.429 138.879  1.00  0.00    -0.247 NA
ATOM      7  C   UNL     1     142.176  96.719 137.586  1.00  0.00     0.156 A 
ATOM      8  C   UNL     1     141.182  97.121 136.581  1.00  0.00     0.283 C 
ATOM      9  O   UNL     1     139.992  97.237 136.813  1.00  0.00    -0.267 OA
ATOM     10  N   UNL     1     141.878  97.346 135.401  1.00  0.00    -0.248 N 
ENDROOT
BRANCH   1  11
ATOM     11  O   UNL     1     143.628  95.925 134.757  1.00  0.00    -0.419 OA
BRANCH  11  12
ATOM     12  C   UNL     1     144.725  96.085 133.975  1.00  0.00     0.412 C 
ATOM     13  N   UNL     1     147.528  92.792 134.363  1.00  0.00    -0.303 NA
ATOM     14  C   UNL     1     146.821  93.351 135.532  1.00  0.00     0.106 C 
ATOM     15  C   UNL     1     147.374  93.626 133.152  1.00  0.00     0.106 C 
ATOM     16  C   UNL     1     145.486  94.024 135.170  1.00  0.00     0.138 C 
ATOM     17  C   UNL     1     146.887  95.067 133.399  1.00  0.00     0.138 C 
ATOM     18  N   UNL     1     145.663  95.099 134.192  1.00  0.00    -0.306 N 
ATOM     19  O   UNL     1     144.867  96.993 133.166  1.00  0.00    -0.224 OA
ATOM     20  C   UNL     1     148.932  92.543 134.678  1.00  0.00     0.105 C 
ENDBRANCH  11  12
ENDBRANCH   1  11
BRANCH  10  21
ATOM     21  C   UNL     1     141.372  97.820 134.179  1.00  0.00     0.138 A 
ATOM     22  C   UNL     1     141.593  99.121 133.734  1.00  0.00     0.049 A 
ATOM     23  N   UNL     1     140.657  96.940 133.437  1.00  0.00    -0.237 NA
ATOM     24  C   UNL     1     141.066  99.533 132.506  1.00  0.00     0.026 A 
ATOM     25  C   UNL     1     140.154  97.360 132.249  1.00  0.00     0.134 A 
ATOM     26  C   UNL     1     140.332  98.636 131.747  1.00  0.00     0.059 A 
ATOM     27  Cl  UNL     1     139.666  99.098 130.237  1.00  0.00    -0.083 Cl
ENDBRANCH  10  21
TORSDOF 3
ENDMDL
