MODEL 1
REMARK VINA RESULT:    -7.499      0.000      0.000
REMARK INTER + INTRA:          -9.559
REMARK INTER:                  -8.814
REMARK INTRA:                  -0.745
REMARK UNBOUND:                -0.745
REMARK SMILES Cc1ccc(-c2nc3ccc(C)cn3c2CC(=O)N(C)C)cc1
REMARK SMILES IDX 6 1 7 2 8 3 9 4 10 5 11 6 12 7 13 8 14 9 15 10 5 11 2 12
REMARK SMILES IDX 3 13 23 14 4 15 22 16 1 17 16 18 17 19 18 20 19 21 20 22
REMARK SMILES IDX 21 23
REMARK H PARENT
ROOT
ATOM      1  C   UNL     1     143.818  96.057 138.639  1.00  0.00     0.093 A 
ATOM      2  N   UNL     1     144.772  95.103 138.383  1.00  0.00    -0.228 NA
ATOM      3  C   UNL     1     144.969  95.144 137.086  1.00  0.00     0.137 A 
ATOM      4  C   UNL     1     145.818  94.365 136.251  1.00  0.00     0.048 C 
ATOM      5  C   UNL     1     145.822  94.568 134.921  1.00  0.00     0.009 C 
ATOM      6  C   UNL     1     144.971  95.578 134.298  1.00  0.00    -0.034 C 
ATOM      7  C   UNL     1     145.033  95.729 132.811  1.00  0.00     0.046 C 
ATOM      8  C   UNL     1     144.177  96.322 135.092  1.00  0.00     0.096 C 
ATOM      9  N   UNL     1     144.183  96.117 136.475  1.00  0.00    -0.303 N 
ATOM     10  C   UNL     1     143.481  96.758 137.489  1.00  0.00     0.060 A 
ENDROOT
BRANCH   1  11
ATOM     11  C   UNL     1     143.313  96.280 139.980  1.00  0.00     0.002 A 
ATOM     12  C   UNL     1     142.387  96.726 142.603  1.00  0.00    -0.051 A 
ATOM     13  C   UNL     1     143.693  97.075 142.244  1.00  0.00     0.004 A 
ATOM     14  C   UNL     1     141.546  96.153 141.641  1.00  0.00     0.004 A 
ATOM     15  C   UNL     1     144.155  96.843 140.946  1.00  0.00     0.011 A 
ATOM     16  C   UNL     1     142.010  95.922 140.342  1.00  0.00     0.011 A 
ATOM     17  C   UNL     1     141.880  97.000 143.988  1.00  0.00     0.044 C 
ENDBRANCH   1  11
BRANCH  10  18
ATOM     18  C   UNL     1     142.587  97.936 137.260  1.00  0.00     0.157 C 
BRANCH  18  19
ATOM     19  C   UNL     1     141.242  97.519 136.666  1.00  0.00     0.228 C 
ATOM     20  O   UNL     1     140.473  96.837 137.350  1.00  0.00    -0.274 OA
ATOM     21  N   UNL     1     140.918  97.914 135.375  1.00  0.00    -0.348 N 
ATOM     22  C   UNL     1     141.750  98.747 134.521  1.00  0.00     0.146 C 
ATOM     23  C   UNL     1     139.707  97.392 134.762  1.00  0.00     0.146 C 
ENDBRANCH  18  19
ENDBRANCH  10  18
TORSDOF 3
ENDMDL
MODEL 2
REMARK VINA RESULT:    -7.372      1.115      1.624
REMARK INTER + INTRA:          -9.410
REMARK INTER:                  -8.705
REMARK INTRA:                  -0.705
REMARK UNBOUND:                -0.745
REMARK SMILES Cc1ccc(-c2nc3ccc(C)cn3c2CC(=O)N(C)C)cc1
REMARK SMILES IDX 6 1 7 2 8 3 9 4 10 5 11 6 12 7 13 8 14 9 15 10 5 11 2 12
REMARK SMILES IDX 3 13 23 14 4 15 22 16 1 17 16 18 17 19 18 20 19 21 20 22
REMARK SMILES IDX 21 23
REMARK H PARENT
ROOT
ATOM      1  C   UNL     1     143.956  95.382 138.796  1.00  0.00     0.093 A 
ATOM      2  N   UNL     1     145.302  95.155 138.647  1.00  0.00    -0.228 NA
ATOM      3  C   UNL     1     145.481  94.936 137.365  1.00  0.00     0.137 A 
ATOM      4  C   UNL     1     146.658  94.614 136.634  1.00  0.00     0.048 C 
ATOM      5  C   UNL     1     146.587  94.395 135.308  1.00  0.00     0.009 C 
ATOM      6  C   UNL     1     145.321  94.479 134.586  1.00  0.00    -0.034 C 
ATOM      7  C   UNL     1     145.331  94.211 133.115  1.00  0.00     0.046 C 
ATOM      8  C   UNL     1     144.209  94.795 135.279  1.00  0.00     0.096 C 
ATOM      9  N   UNL     1     144.288  95.034 136.654  1.00  0.00    -0.303 N 
ATOM     10  C   UNL     1     143.305  95.388 137.570  1.00  0.00     0.060 A 
ENDROOT
BRANCH   1  11
ATOM     11  C   UNL     1     143.372  95.631 140.100  1.00  0.00     0.002 A 
ATOM     12  C   UNL     1     142.196  96.076 142.621  1.00  0.00    -0.051 A 
ATOM     13  C   UNL     1     141.760  95.021 141.812  1.00  0.00     0.004 A 
ATOM     14  C   UNL     1     143.226  96.905 142.161  1.00  0.00     0.004 A 
ATOM     15  C   UNL     1     142.336  94.809 140.557  1.00  0.00     0.011 A 
ATOM     16  C   UNL     1     143.802  96.691 140.906  1.00  0.00     0.011 A 
ATOM     17  C   UNL     1     141.598  96.288 143.980  1.00  0.00     0.044 C 
ENDBRANCH   1  11
BRANCH  10  18
ATOM     18  C   UNL     1     141.888  95.685 137.190  1.00  0.00     0.157 C 
BRANCH  18  19
ATOM     19  C   UNL     1     141.724  97.122 136.696  1.00  0.00     0.228 C 
ATOM     20  O   UNL     1     142.415  98.011 137.204  1.00  0.00    -0.274 OA
ATOM     21  N   UNL     1     140.804  97.395 135.693  1.00  0.00    -0.348 N 
ATOM     22  C   UNL     1     139.981  96.403 135.020  1.00  0.00     0.146 C 
ATOM     23  C   UNL     1     140.545  98.780 135.332  1.00  0.00     0.146 C 
ENDBRANCH  18  19
ENDBRANCH  10  18
TORSDOF 3
ENDMDL
MODEL 3
REMARK VINA RESULT:    -7.197      2.444      5.005
REMARK INTER + INTRA:          -9.204
REMARK INTER:                  -8.528
REMARK INTRA:                  -0.676
REMARK UNBOUND:                -0.745
REMARK SMILES Cc1ccc(-c2nc3ccc(C)cn3c2CC(=O)N(C)C)cc1
REMARK SMILES IDX 6 1 7 2 8 3 9 4 10 5 11 6 12 7 13 8 14 9 15 10 5 11 2 12
REMARK SMILES IDX 3 13 23 14 4 15 22 16 1 17 16 18 17 19 18 20 19 21 20 22
REMARK SMILES IDX 21 23
REMARK H PARENT
ROOT
ATOM      1  C   UNL     1     141.239  97.798 136.442  1.00  0.00     0.093 A 
ATOM      2  N   UNL     1     140.395  98.882 136.418  1.00  0.00    -0.228 NA
ATOM      3  C   UNL     1     140.183  99.131 135.147  1.00  0.00     0.137 A 
ATOM      4  C   UNL     1     139.419 100.153 134.517  1.00  0.00     0.048 C 
ATOM      5  C   UNL     1     139.379 100.231 133.174  1.00  0.00     0.009 C 
ATOM      6  C   UNL     1     140.104  99.284 132.331  1.00  0.00    -0.034 C 
ATOM      7  C   UNL     1     140.011  99.450 130.847  1.00  0.00     0.046 C 
ATOM      8  C   UNL     1     140.817  98.311 132.930  1.00  0.00     0.096 C 
ATOM      9  N   UNL     1     140.848  98.225 134.324  1.00  0.00    -0.303 N 
ATOM     10  C   UNL     1     141.482  97.317 135.163  1.00  0.00     0.060 A 
ENDROOT
BRANCH   1  11
ATOM     11  C   UNL     1     141.727  97.249 137.693  1.00  0.00     0.002 A 
ATOM     12  C   UNL     1     142.625  96.193 140.145  1.00  0.00    -0.051 A 
ATOM     13  C   UNL     1     141.266  96.454 139.941  1.00  0.00     0.004 A 
ATOM     14  C   UNL     1     143.532  96.462 139.113  1.00  0.00     0.004 A 
ATOM     15  C   UNL     1     140.824  96.989 138.729  1.00  0.00     0.011 A 
ATOM     16  C   UNL     1     143.088  96.996 137.900  1.00  0.00     0.011 A 
ATOM     17  C   UNL     1     143.099  95.593 141.436  1.00  0.00     0.044 C 
ENDBRANCH   1  11
BRANCH  10  18
ATOM     18  C   UNL     1     142.235  96.121 134.670  1.00  0.00     0.157 C 
BRANCH  18  19
ATOM     19  C   UNL     1     143.590  96.509 134.078  1.00  0.00     0.228 C 
ATOM     20  O   UNL     1     144.354  97.213 134.746  1.00  0.00    -0.274 OA
ATOM     21  N   UNL     1     143.929  96.065 132.807  1.00  0.00    -0.348 N 
ATOM     22  C   UNL     1     143.104  95.205 131.973  1.00  0.00     0.146 C 
ATOM     23  C   UNL     1     145.150  96.559 132.191  1.00  0.00     0.146 C 
ENDBRANCH  18  19
ENDBRANCH  10  18
TORSDOF 3
ENDMDL
MODEL 4
REMARK VINA RESULT:    -6.879      2.026      4.112
REMARK INTER + INTRA:          -8.830
REMARK INTER:                  -8.063
REMARK INTRA:                  -0.767
REMARK UNBOUND:                -0.745
REMARK SMILES Cc1ccc(-c2nc3ccc(C)cn3c2CC(=O)N(C)C)cc1
REMARK SMILES IDX 6 1 7 2 8 3 9 4 10 5 11 6 12 7 13 8 14 9 15 10 5 11 2 12
REMARK SMILES IDX 3 13 23 14 4 15 22 16 1 17 16 18 17 19 18 20 19 21 20 22
REMARK SMILES IDX 21 23
REMARK H PARENT
ROOT
ATOM      1  C   UNL     1     142.063  96.958 137.211  1.00  0.00     0.093 A 
ATOM      2  N   UNL     1     141.379  98.063 136.766  1.00  0.00    -0.228 NA
ATOM      3  C   UNL     1     141.362  97.960 135.458  1.00  0.00     0.137 A 
ATOM      4  C   UNL     1     140.823  98.827 134.466  1.00  0.00     0.048 C 
ATOM      5  C   UNL     1     140.961  98.524 133.162  1.00  0.00     0.009 C 
ATOM      6  C   UNL     1     141.654  97.315 132.727  1.00  0.00    -0.034 C 
ATOM      7  C   UNL     1     141.769  97.060 131.258  1.00  0.00     0.046 C 
ATOM      8  C   UNL     1     142.152  96.490 133.669  1.00  0.00     0.096 C 
ATOM      9  N   UNL     1     141.998  96.801 135.023  1.00  0.00    -0.303 N 
ATOM     10  C   UNL     1     142.398  96.114 136.162  1.00  0.00     0.060 A 
ENDROOT
BRANCH   1  11
ATOM     11  C   UNL     1     142.316  96.745 138.624  1.00  0.00     0.002 A 
ATOM     12  C   UNL     1     142.863  96.327 141.355  1.00  0.00    -0.051 A 
ATOM     13  C   UNL     1     143.905  96.561 140.451  1.00  0.00     0.004 A 
ATOM     14  C   UNL     1     141.545  96.306 140.884  1.00  0.00     0.004 A 
ATOM     15  C   UNL     1     143.633  96.756 139.095  1.00  0.00     0.011 A 
ATOM     16  C   UNL     1     141.274  96.503 139.526  1.00  0.00     0.011 A 
ATOM     17  C   UNL     1     143.150  96.145 142.816  1.00  0.00     0.044 C 
ENDBRANCH   1  11
BRANCH  10  18
ATOM     18  C   UNL     1     143.042  94.763 136.131  1.00  0.00     0.157 C 
BRANCH  18  19
ATOM     19  C   UNL     1     144.519  94.849 135.749  1.00  0.00     0.228 C 
ATOM     20  O   UNL     1     145.256  95.611 136.384  1.00  0.00    -0.274 OA
ATOM     21  N   UNL     1     144.997  94.073 134.702  1.00  0.00    -0.348 N 
ATOM     22  C   UNL     1     144.205  93.127 133.932  1.00  0.00     0.146 C 
ATOM     23  C   UNL     1     146.365  94.269 134.248  1.00  0.00     0.146 C 
ENDBRANCH  18  19
ENDBRANCH  10  18
TORSDOF 3
ENDMDL
MODEL 5
REMARK VINA RESULT:    -6.512      2.115      6.693
REMARK INTER + INTRA:          -8.399
REMARK INTER:                  -7.576
REMARK INTRA:                  -0.823
REMARK UNBOUND:                -0.745
REMARK SMILES Cc1ccc(-c2nc3ccc(C)cn3c2CC(=O)N(C)C)cc1
REMARK SMILES IDX 6 1 7 2 8 3 9 4 10 5 11 6 12 7 13 8 14 9 15 10 5 11 2 12
REMARK SMILES IDX 3 13 23 14 4 15 22 16 1 17 16 18 17 19 18 20 19 21 20 22
REMARK SMILES IDX 21 23
REMARK H PARENT
ROOT
ATOM      1  C   UNL     1     141.255  97.024 136.231  1.00  0.00     0.093 A 
ATOM      2  N   UNL     1     140.897  97.602 137.425  1.00  0.00    -0.228 NA
ATOM      3  C   UNL     1     141.378  96.810 138.355  1.00  0.00     0.137 A 
ATOM      4  C   UNL     1     141.290  96.884 139.773  1.00  0.00     0.048 C 
ATOM      5  C   UNL     1     141.842  95.919 140.531  1.00  0.00     0.009 C 
ATOM      6  C   UNL     1     142.538  94.782 139.936  1.00  0.00    -0.034 C 
ATOM      7  C   UNL     1     143.112  93.750 140.854  1.00  0.00     0.046 C 
ATOM      8  C   UNL     1     142.630  94.720 138.593  1.00  0.00     0.096 C 
ATOM      9  N   UNL     1     142.066  95.730 137.808  1.00  0.00    -0.303 N 
ATOM     10  C   UNL     1     142.045  95.900 136.429  1.00  0.00     0.060 A 
ENDROOT
BRANCH   1  11
ATOM     11  C   UNL     1     140.862  97.608 134.962  1.00  0.00     0.002 A 
ATOM     12  C   UNL     1     140.141  98.778 132.504  1.00  0.00    -0.051 A 
ATOM     13  C   UNL     1     141.334  99.141 133.139  1.00  0.00     0.004 A 
ATOM     14  C   UNL     1     139.312  97.824 133.106  1.00  0.00     0.004 A 
ATOM     15  C   UNL     1     141.684  98.569 134.364  1.00  0.00     0.011 A 
ATOM     16  C   UNL     1     139.665  97.251 134.331  1.00  0.00     0.011 A 
ATOM     17  C   UNL     1     139.776  99.371 131.175  1.00  0.00     0.044 C 
ENDBRANCH   1  11
BRANCH  10  18
ATOM     18  C   UNL     1     142.759  94.997 135.472  1.00  0.00     0.157 C 
BRANCH  18  19
ATOM     19  C   UNL     1     144.179  95.484 135.188  1.00  0.00     0.228 C 
ATOM     20  O   UNL     1     144.512  96.611 135.568  1.00  0.00    -0.274 OA
ATOM     21  N   UNL     1     145.060  94.651 134.510  1.00  0.00    -0.348 N 
ATOM     22  C   UNL     1     144.758  93.301 134.063  1.00  0.00     0.146 C 
ATOM     23  C   UNL     1     146.357  95.174 134.112  1.00  0.00     0.146 C 
ENDBRANCH  18  19
ENDBRANCH  10  18
TORSDOF 3
ENDMDL
MODEL 6
REMARK VINA RESULT:    -6.258      2.420      6.823
REMARK INTER + INTRA:          -8.100
REMARK INTER:                  -7.088
REMARK INTRA:                  -1.012
REMARK UNBOUND:                -0.745
REMARK SMILES Cc1ccc(-c2nc3ccc(C)cn3c2CC(=O)N(C)C)cc1
REMARK SMILES IDX 6 1 7 2 8 3 9 4 10 5 11 6 12 7 13 8 14 9 15 10 5 11 2 12
REMARK SMILES IDX 3 13 23 14 4 15 22 16 1 17 16 18 17 19 18 20 19 21 20 22
REMARK SMILES IDX 21 23
REMARK H PARENT
ROOT
ATOM      1  C   UNL     1     141.845  96.892 133.650  1.00  0.00     0.093 A 
ATOM      2  N   UNL     1     142.010  97.786 132.621  1.00  0.00    -0.228 NA
ATOM      3  C   UNL     1     141.106  98.718 132.819  1.00  0.00     0.137 A 
ATOM      4  C   UNL     1     140.787  99.877 132.058  1.00  0.00     0.048 C 
ATOM      5  C   UNL     1     139.778 100.679 132.446  1.00  0.00     0.009 C 
ATOM      6  C   UNL     1     138.990 100.392 133.641  1.00  0.00    -0.034 C 
ATOM      7  C   UNL     1     137.880 101.332 133.993  1.00  0.00     0.046 C 
ATOM      8  C   UNL     1     139.302  99.301 134.366  1.00  0.00     0.096 C 
ATOM      9  N   UNL     1     140.358  98.476 133.968  1.00  0.00    -0.303 N 
ATOM     10  C   UNL     1     140.878  97.325 134.547  1.00  0.00     0.060 A 
ENDROOT
BRANCH   1  11
ATOM     11  C   UNL     1     142.656  95.693 133.746  1.00  0.00     0.002 A 
ATOM     12  C   UNL     1     144.278  93.398 133.944  1.00  0.00    -0.051 A 
ATOM     13  C   UNL     1     144.772  94.650 134.326  1.00  0.00     0.004 A 
ATOM     14  C   UNL     1     142.966  93.302 133.465  1.00  0.00     0.004 A 
ATOM     15  C   UNL     1     143.970  95.790 134.216  1.00  0.00     0.011 A 
ATOM     16  C   UNL     1     142.165  94.443 133.356  1.00  0.00     0.011 A 
ATOM     17  C   UNL     1     145.127  92.170 134.088  1.00  0.00     0.044 C 
ENDBRANCH   1  11
BRANCH  10  18
ATOM     18  C   UNL     1     140.409  96.773 135.858  1.00  0.00     0.157 C 
BRANCH  18  19
ATOM     19  C   UNL     1     141.318  97.203 137.009  1.00  0.00     0.228 C 
ATOM     20  O   UNL     1     141.293  98.380 137.383  1.00  0.00    -0.274 OA
ATOM     21  N   UNL     1     142.149  96.264 137.606  1.00  0.00    -0.348 N 
ATOM     22  C   UNL     1     142.210  94.855 137.251  1.00  0.00     0.146 C 
ATOM     23  C   UNL     1     143.116  96.709 138.597  1.00  0.00     0.146 C 
ENDBRANCH  18  19
ENDBRANCH  10  18
TORSDOF 3
ENDMDL
MODEL 7
REMARK VINA RESULT:    -6.055      3.358      4.314
REMARK INTER + INTRA:          -7.862
REMARK INTER:                  -6.891
REMARK INTRA:                  -0.971
REMARK UNBOUND:                -0.745
REMARK SMILES Cc1ccc(-c2nc3ccc(C)cn3c2CC(=O)N(C)C)cc1
REMARK SMILES IDX 6 1 7 2 8 3 9 4 10 5 11 6 12 7 13 8 14 9 15 10 5 11 2 12
REMARK SMILES IDX 3 13 23 14 4 15 22 16 1 17 16 18 17 19 18 20 19 21 20 22
REMARK SMILES IDX 21 23
REMARK H PARENT
ROOT
ATOM      1  C   UNL     1     143.605  96.087 134.750  1.00  0.00     0.093 A 
ATOM      2  N   UNL     1     144.238  94.911 135.068  1.00  0.00    -0.228 NA
ATOM      3  C   UNL     1     145.094  94.700 134.095  1.00  0.00     0.137 A 
ATOM      4  C   UNL     1     145.997  93.623 133.872  1.00  0.00     0.048 C 
ATOM      5  C   UNL     1     146.762  93.607 132.764  1.00  0.00     0.009 C 
ATOM      6  C   UNL     1     146.692  94.675 131.771  1.00  0.00    -0.034 C 
ATOM      7  C   UNL     1     147.571  94.571 130.565  1.00  0.00     0.046 C 
ATOM      8  C   UNL     1     145.844  95.698 131.991  1.00  0.00     0.096 C 
ATOM      9  N   UNL     1     145.060  95.719 133.147  1.00  0.00    -0.303 N 
ATOM     10  C   UNL     1     144.141  96.656 133.602  1.00  0.00     0.060 A 
ENDROOT
BRANCH   1  11
ATOM     11  C   UNL     1     142.554  96.630 135.589  1.00  0.00     0.002 A 
ATOM     12  C   UNL     1     140.551  97.701 137.256  1.00  0.00    -0.051 A 
ATOM     13  C   UNL     1     141.902  97.956 137.517  1.00  0.00     0.004 A 
ATOM     14  C   UNL     1     140.209  96.908 136.154  1.00  0.00     0.004 A 
ATOM     15  C   UNL     1     142.895  97.414 136.696  1.00  0.00     0.011 A 
ATOM     16  C   UNL     1     141.203  96.368 135.333  1.00  0.00     0.011 A 
ATOM     17  C   UNL     1     139.483  98.304 138.120  1.00  0.00     0.044 C 
ENDBRANCH   1  11
BRANCH  10  18
ATOM     18  C   UNL     1     143.875  97.958 132.913  1.00  0.00     0.157 C 
BRANCH  18  19
ATOM     19  C   UNL     1     142.675  97.865 131.971  1.00  0.00     0.228 C 
ATOM     20  O   UNL     1     142.768  97.173 130.952  1.00  0.00    -0.274 OA
ATOM     21  N   UNL     1     141.513  98.559 132.280  1.00  0.00    -0.348 N 
ATOM     22  C   UNL     1     141.311  99.362 133.476  1.00  0.00     0.146 C 
ATOM     23  C   UNL     1     140.431  98.587 131.309  1.00  0.00     0.146 C 
ENDBRANCH  18  19
ENDBRANCH  10  18
TORSDOF 3
ENDMDL
MODEL 8
REMARK VINA RESULT:    -5.874      2.232      6.067
REMARK INTER + INTRA:          -7.649
REMARK INTER:                  -6.825
REMARK INTRA:                  -0.825
REMARK UNBOUND:                -0.745
REMARK SMILES Cc1ccc(-c2nc3ccc(C)cn3c2CC(=O)N(C)C)cc1
REMARK SMILES IDX 6 1 7 2 8 3 9 4 10 5 11 6 12 7 13 8 14 9 15 10 5 11 2 12
REMARK SMILES IDX 3 13 23 14 4 15 22 16 1 17 16 18 17 19 18 20 19 21 20 22
REMARK SMILES IDX 21 23
REMARK H PARENT
ROOT
ATOM      1  C   UNL     1     141.984  96.497 133.809  1.00  0.00     0.093 A 
ATOM      2  N   UNL     1     141.768  95.454 132.942  1.00  0.00    -0.228 NA
ATOM      3  C   UNL     1     142.634  94.529 133.285  1.00  0.00     0.137 A 
ATOM      4  C   UNL     1     142.895  93.248 132.722  1.00  0.00     0.048 C 
ATOM      5  C   UNL     1     143.875  92.478 133.231  1.00  0.00     0.009 C 
ATOM      6  C   UNL     1     144.690  92.923 134.359  1.00  0.00    -0.034 C 
ATOM      7  C   UNL     1     145.763  92.007 134.854  1.00  0.00     0.046 C 
ATOM      8  C   UNL     1     144.432  94.131 134.896  1.00  0.00     0.096 C 
ATOM      9  N   UNL     1     143.407  94.924 134.374  1.00  0.00    -0.303 N 
ATOM     10  C   UNL     1     142.943  96.175 134.759  1.00  0.00     0.060 A 
ENDROOT
BRANCH   1  11
ATOM     11  C   UNL     1     141.224  97.729 133.711  1.00  0.00     0.002 A 
ATOM     12  C   UNL     1     139.713 100.102 133.563  1.00  0.00    -0.051 A 
ATOM     13  C   UNL     1     139.480  99.176 134.585  1.00  0.00     0.004 A 
ATOM     14  C   UNL     1     140.710  99.834 132.617  1.00  0.00     0.004 A 
ATOM     15  C   UNL     1     140.221  97.994 134.651  1.00  0.00     0.011 A 
ATOM     16  C   UNL     1     141.452  98.651 132.684  1.00  0.00     0.011 A 
ATOM     17  C   UNL     1     138.937 101.385 133.507  1.00  0.00     0.044 C 
ENDBRANCH   1  11
BRANCH  10  18
ATOM     18  C   UNL     1     143.451  96.914 135.958  1.00  0.00     0.157 C 
BRANCH  18  19
ATOM     19  C   UNL     1     142.810  96.404 137.249  1.00  0.00     0.228 C 
ATOM     20  O   UNL     1     141.583  96.466 137.371  1.00  0.00    -0.274 OA
ATOM     21  N   UNL     1     143.620  95.888 138.251  1.00  0.00    -0.348 N 
ATOM     22  C   UNL     1     145.065  95.747 138.171  1.00  0.00     0.146 C 
ATOM     23  C   UNL     1     143.022  95.544 139.532  1.00  0.00     0.146 C 
ENDBRANCH  18  19
ENDBRANCH  10  18
TORSDOF 3
ENDMDL
MODEL 9
REMARK VINA RESULT:    -5.780      4.047      5.987
REMARK INTER + INTRA:          -7.539
REMARK INTER:                  -6.862
REMARK INTRA:                  -0.677
REMARK UNBOUND:                -0.745
REMARK SMILES Cc1ccc(-c2nc3ccc(C)cn3c2CC(=O)N(C)C)cc1
REMARK SMILES IDX 6 1 7 2 8 3 9 4 10 5 11 6 12 7 13 8 14 9 15 10 5 11 2 12
REMARK SMILES IDX 3 13 23 14 4 15 22 16 1 17 16 18 17 19 18 20 19 21 20 22
REMARK SMILES IDX 21 23
REMARK H PARENT
ROOT
ATOM      1  C   UNL     1     142.114  97.234 134.243  1.00  0.00     0.093 A 
ATOM      2  N   UNL     1     142.998  97.153 135.291  1.00  0.00    -0.228 NA
ATOM      3  C   UNL     1     143.627  96.012 135.129  1.00  0.00     0.137 A 
ATOM      4  C   UNL     1     144.627  95.383 135.924  1.00  0.00     0.048 C 
ATOM      5  C   UNL     1     145.103  94.175 135.570  1.00  0.00     0.009 C 
ATOM      6  C   UNL     1     144.621  93.480 134.381  1.00  0.00    -0.034 C 
ATOM      7  C   UNL     1     145.200  92.136 134.069  1.00  0.00     0.046 C 
ATOM      8  C   UNL     1     143.683  94.083 133.625  1.00  0.00     0.096 C 
ATOM      9  N   UNL     1     143.197  95.342 133.987  1.00  0.00    -0.303 N 
ATOM     10  C   UNL     1     142.261  96.164 133.372  1.00  0.00     0.060 A 
ENDROOT
BRANCH   1  11
ATOM     11  C   UNL     1     141.208  98.359 134.105  1.00  0.00     0.002 A 
ATOM     12  C   UNL     1     139.477 100.559 133.789  1.00  0.00    -0.051 A 
ATOM     13  C   UNL     1     140.352 100.192 132.760  1.00  0.00     0.004 A 
ATOM     14  C   UNL     1     139.472  99.816 134.976  1.00  0.00     0.004 A 
ATOM     15  C   UNL     1     141.219  99.108 132.923  1.00  0.00     0.011 A 
ATOM     16  C   UNL     1     140.339  98.731 135.136  1.00  0.00     0.011 A 
ATOM     17  C   UNL     1     138.526 101.705 133.606  1.00  0.00     0.044 C 
ENDBRANCH   1  11
BRANCH  10  18
ATOM     18  C   UNL     1     141.621  95.849 132.055  1.00  0.00     0.157 C 
BRANCH  18  19
ATOM     19  C   UNL     1     140.119  95.602 132.201  1.00  0.00     0.228 C 
ATOM     20  O   UNL     1     139.715  94.929 133.155  1.00  0.00    -0.274 OA
ATOM     21  N   UNL     1     139.248  96.137 131.262  1.00  0.00    -0.348 N 
ATOM     22  C   UNL     1     139.640  96.969 130.135  1.00  0.00     0.146 C 
ATOM     23  C   UNL     1     137.841  95.776 131.321  1.00  0.00     0.146 C 
ENDBRANCH  18  19
ENDBRANCH  10  18
TORSDOF 3
ENDMDL
