MODEL 1
REMARK VINA RESULT:   -10.585      0.000      0.000
REMARK INTER + INTRA:         -11.592
REMARK INTER:                 -11.204
REMARK INTRA:                  -0.388
REMARK UNBOUND:                -0.388
REMARK SMILES Cc1nnc2n1-c1ccc(Cl)cc1C(c1ccccc1)=NC2
REMARK SMILES IDX 1 1 2 2 3 3 4 4 5 5 6 6 7 7 8 8 9 9 10 10 11 11 12 12 13 13
REMARK SMILES IDX 14 14 21 15 22 16 15 17 16 18 20 19 17 20 19 21 18 22
REMARK H PARENT
ROOT
ATOM      1  C   UNL     1     115.452 160.737 113.000  1.00  0.00     0.090 C 
ATOM      2  C   UNL     1     116.677 160.839 112.173  1.00  0.00     0.134 A 
ATOM      3  N   UNL     1     117.133 161.965 111.662  1.00  0.00    -0.135 NA
ATOM      4  N   UNL     1     118.185 161.671 110.842  1.00  0.00    -0.133 NA
ATOM      5  C   UNL     1     118.363 160.367 110.864  1.00  0.00     0.159 A 
ATOM      6  N   UNL     1     117.460 159.785 111.726  1.00  0.00    -0.281 N 
ATOM      7  C   UNL     1     117.449 158.416 112.101  1.00  0.00     0.058 A 
ATOM      8  C   UNL     1     117.115 158.069 113.421  1.00  0.00     0.029 A 
ATOM      9  C   UNL     1     117.188 156.738 113.843  1.00  0.00     0.023 A 
ATOM     10  C   UNL     1     117.608 155.751 112.959  1.00  0.00     0.041 A 
ATOM     11  Cl  UNL     1     117.714 154.119 113.488  1.00  0.00    -0.084 Cl
ATOM     12  C   UNL     1     117.939 156.077 111.647  1.00  0.00     0.033 A 
ATOM     13  C   UNL     1     117.844 157.408 111.199  1.00  0.00     0.026 A 
ATOM     14  C   UNL     1     118.103 157.655 109.742  1.00  0.00     0.075 C 
ATOM     15  N   UNL     1     118.823 158.617 109.274  1.00  0.00    -0.276 NA
ATOM     16  C   UNL     1     119.419 159.595 110.171  1.00  0.00     0.220 C 
ENDROOT
BRANCH  14  17
ATOM     17  C   UNL     1     117.485 156.724 108.741  1.00  0.00     0.000 A 
ATOM     18  C   UNL     1     118.276 156.231 107.695  1.00  0.00     0.010 A 
ATOM     19  C   UNL     1     116.133 156.368 108.817  1.00  0.00     0.010 A 
ATOM     20  C   UNL     1     117.724 155.366 106.750  1.00  0.00     0.001 A 
ATOM     21  C   UNL     1     115.587 155.500 107.868  1.00  0.00     0.001 A 
ATOM     22  C   UNL     1     116.382 154.997 106.840  1.00  0.00     0.000 A 
ENDBRANCH  14  17
TORSDOF 1
ENDMDL
MODEL 2
REMARK VINA RESULT:   -10.545      0.070      1.032
REMARK INTER + INTRA:         -11.550
REMARK INTER:                 -11.148
REMARK INTRA:                  -0.403
REMARK UNBOUND:                -0.388
REMARK SMILES Cc1nnc2n1-c1ccc(Cl)cc1C(c1ccccc1)=NC2
REMARK SMILES IDX 1 1 2 2 3 3 4 4 5 5 6 6 7 7 8 8 9 9 10 10 11 11 12 12 13 13
REMARK SMILES IDX 14 14 21 15 22 16 15 17 16 18 20 19 17 20 19 21 18 22
REMARK H PARENT
ROOT
ATOM      1  C   UNL     1     115.450 160.752 112.983  1.00  0.00     0.090 C 
ATOM      2  C   UNL     1     116.682 160.844 112.165  1.00  0.00     0.134 A 
ATOM      3  N   UNL     1     117.149 161.964 111.653  1.00  0.00    -0.135 NA
ATOM      4  N   UNL     1     118.205 161.660 110.842  1.00  0.00    -0.133 NA
ATOM      5  C   UNL     1     118.375 160.356 110.871  1.00  0.00     0.159 A 
ATOM      6  N   UNL     1     117.461 159.783 111.728  1.00  0.00    -0.281 N 
ATOM      7  C   UNL     1     117.439 158.416 112.109  1.00  0.00     0.058 A 
ATOM      8  C   UNL     1     117.093 158.076 113.427  1.00  0.00     0.029 A 
ATOM      9  C   UNL     1     117.154 156.747 113.856  1.00  0.00     0.023 A 
ATOM     10  C   UNL     1     117.575 155.754 112.979  1.00  0.00     0.041 A 
ATOM     11  Cl  UNL     1     117.667 154.123 113.515  1.00  0.00    -0.084 Cl
ATOM     12  C   UNL     1     117.919 156.072 111.668  1.00  0.00     0.033 A 
ATOM     13  C   UNL     1     117.835 157.401 111.214  1.00  0.00     0.026 A 
ATOM     14  C   UNL     1     118.106 157.640 109.758  1.00  0.00     0.075 C 
ATOM     15  N   UNL     1     118.836 158.596 109.291  1.00  0.00    -0.276 NA
ATOM     16  C   UNL     1     119.431 159.574 110.189  1.00  0.00     0.220 C 
ENDROOT
BRANCH  14  17
ATOM     17  C   UNL     1     117.491 156.709 108.756  1.00  0.00     0.000 A 
ATOM     18  C   UNL     1     116.119 156.441 108.832  1.00  0.00     0.010 A 
ATOM     19  C   UNL     1     118.268 156.083 107.773  1.00  0.00     0.010 A 
ATOM     20  C   UNL     1     115.523 155.576 107.912  1.00  0.00     0.001 A 
ATOM     21  C   UNL     1     117.666 155.220 106.855  1.00  0.00     0.001 A 
ATOM     22  C   UNL     1     116.295 154.971 106.922  1.00  0.00     0.000 A 
ENDBRANCH  14  17
TORSDOF 1
ENDMDL
MODEL 3
REMARK VINA RESULT:    -9.092      2.889      6.356
REMARK INTER + INTRA:         -10.012
REMARK INTER:                 -10.313
REMARK INTRA:                   0.301
REMARK UNBOUND:                -0.388
REMARK SMILES Cc1nnc2n1-c1ccc(Cl)cc1C(c1ccccc1)=NC2
REMARK SMILES IDX 1 1 2 2 3 3 4 4 5 5 6 6 7 7 8 8 9 9 10 10 11 11 12 12 13 13
REMARK SMILES IDX 14 14 21 15 22 16 15 17 16 18 20 19 17 20 19 21 18 22
REMARK H PARENT
ROOT
ATOM      1  C   UNL     1     117.459 156.475 106.441  1.00  0.00     0.090 C 
ATOM      2  C   UNL     1     117.534 156.170 107.889  1.00  0.00     0.134 A 
ATOM      3  N   UNL     1     116.834 155.226 108.484  1.00  0.00    -0.135 NA
ATOM      4  N   UNL     1     117.038 155.322 109.831  1.00  0.00    -0.133 NA
ATOM      5  C   UNL     1     117.865 156.322 110.044  1.00  0.00     0.159 A 
ATOM      6  N   UNL     1     118.250 156.877 108.843  1.00  0.00    -0.281 N 
ATOM      7  C   UNL     1     119.237 157.884 108.684  1.00  0.00     0.058 A 
ATOM      8  C   UNL     1     120.091 157.839 107.569  1.00  0.00     0.029 A 
ATOM      9  C   UNL     1     121.132 158.762 107.436  1.00  0.00     0.023 A 
ATOM     10  C   UNL     1     121.337 159.724 108.418  1.00  0.00     0.041 A 
ATOM     11  Cl  UNL     1     122.631 160.845 108.259  1.00  0.00    -0.084 Cl
ATOM     12  C   UNL     1     120.499 159.786 109.528  1.00  0.00     0.033 A 
ATOM     13  C   UNL     1     119.429 158.881 109.662  1.00  0.00     0.026 A 
ATOM     14  C   UNL     1     118.503 159.092 110.822  1.00  0.00     0.075 C 
ATOM     15  N   UNL     1     118.061 158.157 111.593  1.00  0.00    -0.276 NA
ATOM     16  C   UNL     1     118.416 156.768 111.344  1.00  0.00     0.220 C 
ENDROOT
BRANCH  14  17
ATOM     17  C   UNL     1     118.044 160.489 111.124  1.00  0.00     0.000 A 
ATOM     18  C   UNL     1     116.973 160.675 112.007  1.00  0.00     0.010 A 
ATOM     19  C   UNL     1     118.644 161.598 110.514  1.00  0.00     0.010 A 
ATOM     20  C   UNL     1     116.527 161.964 112.302  1.00  0.00     0.001 A 
ATOM     21  C   UNL     1     118.192 162.886 110.814  1.00  0.00     0.001 A 
ATOM     22  C   UNL     1     117.139 163.068 111.709  1.00  0.00     0.000 A 
ENDBRANCH  14  17
TORSDOF 1
ENDMDL
MODEL 4
REMARK VINA RESULT:    -7.593      3.946      5.889
REMARK INTER + INTRA:          -8.426
REMARK INTER:                  -8.234
REMARK INTRA:                  -0.191
REMARK UNBOUND:                -0.388
REMARK SMILES Cc1nnc2n1-c1ccc(Cl)cc1C(c1ccccc1)=NC2
REMARK SMILES IDX 1 1 2 2 3 3 4 4 5 5 6 6 7 7 8 8 9 9 10 10 11 11 12 12 13 13
REMARK SMILES IDX 14 14 21 15 22 16 15 17 16 18 20 19 17 20 19 21 18 22
REMARK H PARENT
ROOT
ATOM      1  C   UNL     1     117.027 156.663 118.242  1.00  0.00     0.090 C 
ATOM      2  C   UNL     1     116.243 155.820 117.310  1.00  0.00     0.134 A 
ATOM      3  N   UNL     1     116.010 154.536 117.492  1.00  0.00    -0.135 NA
ATOM      4  N   UNL     1     115.390 154.048 116.377  1.00  0.00    -0.133 NA
ATOM      5  C   UNL     1     115.248 155.041 115.526  1.00  0.00     0.159 A 
ATOM      6  N   UNL     1     115.735 156.205 116.079  1.00  0.00    -0.281 N 
ATOM      7  C   UNL     1     115.622 157.497 115.501  1.00  0.00     0.058 A 
ATOM      8  C   UNL     1     115.398 158.605 116.335  1.00  0.00     0.029 A 
ATOM      9  C   UNL     1     115.189 159.874 115.788  1.00  0.00     0.023 A 
ATOM     10  C   UNL     1     115.189 160.042 114.408  1.00  0.00     0.041 A 
ATOM     11  Cl  UNL     1     114.912 161.601 113.737  1.00  0.00    -0.084 Cl
ATOM     12  C   UNL     1     115.413 158.956 113.566  1.00  0.00     0.033 A 
ATOM     13  C   UNL     1     115.652 157.678 114.103  1.00  0.00     0.026 A 
ATOM     14  C   UNL     1     116.004 156.588 113.135  1.00  0.00     0.075 C 
ATOM     15  N   UNL     1     115.516 155.395 113.158  1.00  0.00    -0.276 NA
ATOM     16  C   UNL     1     114.584 155.000 114.204  1.00  0.00     0.220 C 
ENDROOT
BRANCH  14  17
ATOM     17  C   UNL     1     116.997 156.891 112.051  1.00  0.00     0.000 A 
ATOM     18  C   UNL     1     116.911 156.196 110.839  1.00  0.00     0.010 A 
ATOM     19  C   UNL     1     118.021 157.827 112.245  1.00  0.00     0.010 A 
ATOM     20  C   UNL     1     117.824 156.459 109.816  1.00  0.00     0.001 A 
ATOM     21  C   UNL     1     118.931 158.086 111.217  1.00  0.00     0.001 A 
ATOM     22  C   UNL     1     118.829 157.406 110.004  1.00  0.00     0.000 A 
ENDBRANCH  14  17
TORSDOF 1
ENDMDL
MODEL 5
REMARK VINA RESULT:    -7.211      4.427      7.077
REMARK INTER + INTRA:          -8.021
REMARK INTER:                  -7.634
REMARK INTRA:                  -0.387
REMARK UNBOUND:                -0.388
REMARK SMILES Cc1nnc2n1-c1ccc(Cl)cc1C(c1ccccc1)=NC2
REMARK SMILES IDX 1 1 2 2 3 3 4 4 5 5 6 6 7 7 8 8 9 9 10 10 11 11 12 12 13 13
REMARK SMILES IDX 14 14 21 15 22 16 15 17 16 18 20 19 17 20 19 21 18 22
REMARK H PARENT
ROOT
ATOM      1  C   UNL     1     115.950 153.879 116.849  1.00  0.00     0.090 C 
ATOM      2  C   UNL     1     116.306 155.161 117.501  1.00  0.00     0.134 A 
ATOM      3  N   UNL     1     116.310 155.352 118.805  1.00  0.00    -0.135 NA
ATOM      4  N   UNL     1     116.539 156.677 119.045  1.00  0.00    -0.133 NA
ATOM      5  C   UNL     1     116.676 157.281 117.884  1.00  0.00     0.159 A 
ATOM      6  N   UNL     1     116.579 156.361 116.863  1.00  0.00    -0.281 N 
ATOM      7  C   UNL     1     116.812 156.633 115.490  1.00  0.00     0.058 A 
ATOM      8  C   UNL     1     117.446 155.663 114.695  1.00  0.00     0.029 A 
ATOM      9  C   UNL     1     117.773 155.939 113.365  1.00  0.00     0.023 A 
ATOM     10  C   UNL     1     117.484 157.187 112.824  1.00  0.00     0.041 A 
ATOM     11  Cl  UNL     1     117.906 157.530 111.193  1.00  0.00    -0.084 Cl
ATOM     12  C   UNL     1     116.854 158.160 113.595  1.00  0.00     0.033 A 
ATOM     13  C   UNL     1     116.493 157.887 114.928  1.00  0.00     0.026 A 
ATOM     14  C   UNL     1     115.711 158.943 115.650  1.00  0.00     0.075 C 
ATOM     15  N   UNL     1     115.938 159.332 116.858  1.00  0.00    -0.276 NA
ATOM     16  C   UNL     1     116.990 158.708 117.648  1.00  0.00     0.220 C 
ENDROOT
BRANCH  14  17
ATOM     17  C   UNL     1     114.574 159.606 114.929  1.00  0.00     0.000 A 
ATOM     18  C   UNL     1     114.803 160.825 114.278  1.00  0.00     0.010 A 
ATOM     19  C   UNL     1     113.291 159.046 114.925  1.00  0.00     0.010 A 
ATOM     20  C   UNL     1     113.761 161.462 113.603  1.00  0.00     0.001 A 
ATOM     21  C   UNL     1     112.253 159.689 114.246  1.00  0.00     0.001 A 
ATOM     22  C   UNL     1     112.489 160.892 113.583  1.00  0.00     0.000 A 
ENDBRANCH  14  17
TORSDOF 1
ENDMDL
MODEL 6
REMARK VINA RESULT:    -7.071      3.397      6.674
REMARK INTER + INTRA:          -7.873
REMARK INTER:                  -8.203
REMARK INTRA:                   0.330
REMARK UNBOUND:                -0.388
REMARK SMILES Cc1nnc2n1-c1ccc(Cl)cc1C(c1ccccc1)=NC2
REMARK SMILES IDX 1 1 2 2 3 3 4 4 5 5 6 6 7 7 8 8 9 9 10 10 11 11 12 12 13 13
REMARK SMILES IDX 14 14 21 15 22 16 15 17 16 18 20 19 17 20 19 21 18 22
REMARK H PARENT
ROOT
ATOM      1  C   UNL     1     117.457 155.618 111.055  1.00  0.00     0.090 C 
ATOM      2  C   UNL     1     117.466 155.844 112.520  1.00  0.00     0.134 A 
ATOM      3  N   UNL     1     117.612 154.888 113.415  1.00  0.00    -0.135 NA
ATOM      4  N   UNL     1     117.423 155.428 114.656  1.00  0.00    -0.133 NA
ATOM      5  C   UNL     1     117.167 156.709 114.505  1.00  0.00     0.159 A 
ATOM      6  N   UNL     1     117.221 157.045 113.169  1.00  0.00    -0.281 N 
ATOM      7  C   UNL     1     117.131 158.362 112.650  1.00  0.00     0.058 A 
ATOM      8  C   UNL     1     117.917 158.719 111.542  1.00  0.00     0.029 A 
ATOM      9  C   UNL     1     117.919 160.034 111.068  1.00  0.00     0.023 A 
ATOM     10  C   UNL     1     117.151 161.002 111.705  1.00  0.00     0.041 A 
ATOM     11  Cl  UNL     1     117.172 162.623 111.131  1.00  0.00    -0.084 Cl
ATOM     12  C   UNL     1     116.364 160.666 112.803  1.00  0.00     0.033 A 
ATOM     13  C   UNL     1     116.329 159.341 113.274  1.00  0.00     0.026 A 
ATOM     14  C   UNL     1     115.365 159.038 114.382  1.00  0.00     0.075 C 
ATOM     15  N   UNL     1     115.638 158.329 115.424  1.00  0.00    -0.276 NA
ATOM     16  C   UNL     1     116.948 157.711 115.572  1.00  0.00     0.220 C 
ENDROOT
BRANCH  14  17
ATOM     17  C   UNL     1     113.974 159.593 114.288  1.00  0.00     0.000 A 
ATOM     18  C   UNL     1     112.934 158.931 114.951  1.00  0.00     0.010 A 
ATOM     19  C   UNL     1     113.698 160.736 113.527  1.00  0.00     0.010 A 
ATOM     20  C   UNL     1     111.631 159.427 114.877  1.00  0.00     0.001 A 
ATOM     21  C   UNL     1     112.392 161.227 113.458  1.00  0.00     0.001 A 
ATOM     22  C   UNL     1     111.362 160.576 114.136  1.00  0.00     0.000 A 
ENDBRANCH  14  17
TORSDOF 1
ENDMDL
MODEL 7
REMARK VINA RESULT:    -6.632      2.813      4.500
REMARK INTER + INTRA:          -7.408
REMARK INTER:                  -7.328
REMARK INTRA:                  -0.080
REMARK UNBOUND:                -0.388
REMARK SMILES Cc1nnc2n1-c1ccc(Cl)cc1C(c1ccccc1)=NC2
REMARK SMILES IDX 1 1 2 2 3 3 4 4 5 5 6 6 7 7 8 8 9 9 10 10 11 11 12 12 13 13
REMARK SMILES IDX 14 14 21 15 22 16 15 17 16 18 20 19 17 20 19 21 18 22
REMARK H PARENT
ROOT
ATOM      1  C   UNL     1     111.239 159.421 113.981  1.00  0.00     0.090 C 
ATOM      2  C   UNL     1     112.271 160.482 113.932  1.00  0.00     0.134 A 
ATOM      3  N   UNL     1     112.030 161.734 113.597  1.00  0.00    -0.135 NA
ATOM      4  N   UNL     1     113.223 162.395 113.515  1.00  0.00    -0.133 NA
ATOM      5  C   UNL     1     114.179 161.540 113.805  1.00  0.00     0.159 A 
ATOM      6  N   UNL     1     113.635 160.315 114.120  1.00  0.00    -0.281 N 
ATOM      7  C   UNL     1     114.358 159.197 114.612  1.00  0.00     0.058 A 
ATOM      8  C   UNL     1     113.767 158.369 115.581  1.00  0.00     0.029 A 
ATOM      9  C   UNL     1     114.491 157.319 116.152  1.00  0.00     0.023 A 
ATOM     10  C   UNL     1     115.809 157.097 115.772  1.00  0.00     0.041 A 
ATOM     11  Cl  UNL     1     116.702 155.816 116.490  1.00  0.00    -0.084 Cl
ATOM     12  C   UNL     1     116.410 157.905 114.810  1.00  0.00     0.033 A 
ATOM     13  C   UNL     1     115.685 158.950 114.206  1.00  0.00     0.026 A 
ATOM     14  C   UNL     1     116.365 159.694 113.096  1.00  0.00     0.075 C 
ATOM     15  N   UNL     1     116.365 160.977 112.960  1.00  0.00    -0.276 NA
ATOM     16  C   UNL     1     115.631 161.817 113.896  1.00  0.00     0.220 C 
ENDROOT
BRANCH  14  17
ATOM     17  C   UNL     1     117.104 158.905 112.056  1.00  0.00     0.000 A 
ATOM     18  C   UNL     1     118.082 159.547 111.286  1.00  0.00     0.010 A 
ATOM     19  C   UNL     1     116.811 157.556 111.823  1.00  0.00     0.010 A 
ATOM     20  C   UNL     1     118.783 158.835 110.311  1.00  0.00     0.001 A 
ATOM     21  C   UNL     1     117.516 156.848 110.847  1.00  0.00     0.001 A 
ATOM     22  C   UNL     1     118.503 157.486 110.096  1.00  0.00     0.000 A 
ENDBRANCH  14  17
TORSDOF 1
ENDMDL
MODEL 8
REMARK VINA RESULT:    -6.617      4.219      7.212
REMARK INTER + INTRA:          -7.392
REMARK INTER:                  -7.002
REMARK INTRA:                  -0.390
REMARK UNBOUND:                -0.388
REMARK SMILES Cc1nnc2n1-c1ccc(Cl)cc1C(c1ccccc1)=NC2
REMARK SMILES IDX 1 1 2 2 3 3 4 4 5 5 6 6 7 7 8 8 9 9 10 10 11 11 12 12 13 13
REMARK SMILES IDX 14 14 21 15 22 16 15 17 16 18 20 19 17 20 19 21 18 22
REMARK H PARENT
ROOT
ATOM      1  C   UNL     1     114.863 155.212 113.527  1.00  0.00     0.090 C 
ATOM      2  C   UNL     1     114.945 156.017 114.768  1.00  0.00     0.134 A 
ATOM      3  N   UNL     1     114.601 155.576 115.961  1.00  0.00    -0.135 NA
ATOM      4  N   UNL     1     114.662 156.619 116.841  1.00  0.00    -0.133 NA
ATOM      5  C   UNL     1     115.046 157.687 116.175  1.00  0.00     0.159 A 
ATOM      6  N   UNL     1     115.282 157.360 114.858  1.00  0.00    -0.281 N 
ATOM      7  C   UNL     1     115.837 158.229 113.884  1.00  0.00     0.058 A 
ATOM      8  C   UNL     1     116.722 157.710 112.925  1.00  0.00     0.029 A 
ATOM      9  C   UNL     1     117.357 158.558 112.013  1.00  0.00     0.023 A 
ATOM     10  C   UNL     1     117.124 159.928 112.061  1.00  0.00     0.041 A 
ATOM     11  Cl  UNL     1     117.922 160.970 110.950  1.00  0.00    -0.084 Cl
ATOM     12  C   UNL     1     116.247 160.460 113.002  1.00  0.00     0.033 A 
ATOM     13  C   UNL     1     115.579 159.615 113.909  1.00  0.00     0.026 A 
ATOM     14  C   UNL     1     114.562 160.252 114.808  1.00  0.00     0.075 C 
ATOM     15  N   UNL     1     114.444 160.018 116.071  1.00  0.00    -0.276 NA
ATOM     16  C   UNL     1     115.302 159.039 116.721  1.00  0.00     0.220 C 
ENDROOT
BRANCH  14  17
ATOM     17  C   UNL     1     113.602 161.238 114.212  1.00  0.00     0.000 A 
ATOM     18  C   UNL     1     112.426 160.765 113.615  1.00  0.00     0.010 A 
ATOM     19  C   UNL     1     113.876 162.612 114.214  1.00  0.00     0.010 A 
ATOM     20  C   UNL     1     111.518 161.662 113.052  1.00  0.00     0.001 A 
ATOM     21  C   UNL     1     112.962 163.505 113.649  1.00  0.00     0.001 A 
ATOM     22  C   UNL     1     111.784 163.031 113.073  1.00  0.00     0.000 A 
ENDBRANCH  14  17
TORSDOF 1
ENDMDL
