MODEL 1
REMARK VINA RESULT:   -10.873      0.000      0.000
REMARK INTER + INTRA:         -11.582
REMARK INTER:                 -11.509
REMARK INTRA:                  -0.074
REMARK UNBOUND:                -0.074
REMARK SMILES Cc1nnc2n1-c1ccc(Cl)cc1C(c1ccccc1Cl)=NC2
REMARK SMILES IDX 1 1 2 2 3 3 4 4 5 5 6 6 7 7 8 8 9 9 10 10 11 11 12 12 13 13
REMARK SMILES IDX 14 14 22 15 23 16 15 17 16 18 20 19 17 20 19 21 18 22 21 23
REMARK H PARENT
ROOT
ATOM      1  C   UNL     1     115.453 160.691 113.064  1.00  0.00     0.090 C 
ATOM      2  C   UNL     1     116.663 160.825 112.219  1.00  0.00     0.134 A 
ATOM      3  N   UNL     1     117.085 161.967 111.713  1.00  0.00    -0.135 NA
ATOM      4  N   UNL     1     118.125 161.704 110.868  1.00  0.00    -0.133 NA
ATOM      5  C   UNL     1     118.330 160.405 110.870  1.00  0.00     0.159 A 
ATOM      6  N   UNL     1     117.458 159.792 111.743  1.00  0.00    -0.281 N 
ATOM      7  C   UNL     1     117.467 158.415 112.092  1.00  0.00     0.058 A 
ATOM      8  C   UNL     1     117.136 158.043 113.407  1.00  0.00     0.029 A 
ATOM      9  C   UNL     1     117.183 156.704 113.801  1.00  0.00     0.023 A 
ATOM     10  C   UNL     1     117.569 155.729 112.890  1.00  0.00     0.041 A 
ATOM     11  Cl  UNL     1     117.635 154.081 113.380  1.00  0.00    -0.084 Cl
ATOM     12  C   UNL     1     117.903 156.078 111.584  1.00  0.00     0.033 A 
ATOM     13  C   UNL     1     117.852 157.420 111.167  1.00  0.00     0.026 A 
ATOM     14  C   UNL     1     118.120 157.695 109.718  1.00  0.00     0.076 C 
ATOM     15  N   UNL     1     118.782 158.691 109.242  1.00  0.00    -0.276 NA
ATOM     16  C   UNL     1     119.382 159.666 110.141  1.00  0.00     0.220 C 
ENDROOT
BRANCH  14  17
ATOM     17  C   UNL     1     117.534 156.760 108.723  1.00  0.00     0.019 A 
ATOM     18  C   UNL     1     116.188 156.404 108.873  1.00  0.00     0.012 A 
ATOM     19  C   UNL     1     118.282 156.264 107.649  1.00  0.00     0.050 A 
ATOM     20  C   UNL     1     115.592 155.541 107.952  1.00  0.00     0.001 A 
ATOM     21  C   UNL     1     117.677 155.399 106.733  1.00  0.00     0.021 A 
ATOM     22  C   UNL     1     116.336 155.039 106.884  1.00  0.00     0.002 A 
ATOM     23  Cl  UNL     1     119.957 156.627 107.441  1.00  0.00    -0.084 Cl
ENDBRANCH  14  17
TORSDOF 1
ENDMDL
MODEL 2
REMARK VINA RESULT:   -10.161      0.878      1.058
REMARK INTER + INTRA:         -10.829
REMARK INTER:                 -10.436
REMARK INTRA:                  -0.393
REMARK UNBOUND:                -0.074
REMARK SMILES Cc1nnc2n1-c1ccc(Cl)cc1C(c1ccccc1Cl)=NC2
REMARK SMILES IDX 1 1 2 2 3 3 4 4 5 5 6 6 7 7 8 8 9 9 10 10 11 11 12 12 13 13
REMARK SMILES IDX 14 14 22 15 23 16 15 17 16 18 20 19 17 20 19 21 18 22 21 23
REMARK H PARENT
ROOT
ATOM      1  C   UNL     1     114.633 159.660 114.212  1.00  0.00     0.090 C 
ATOM      2  C   UNL     1     115.707 160.157 113.321  1.00  0.00     0.134 A 
ATOM      3  N   UNL     1     115.845 161.420 112.967  1.00  0.00    -0.135 NA
ATOM      4  N   UNL     1     116.832 161.497 112.027  1.00  0.00    -0.133 NA
ATOM      5  C   UNL     1     117.291 160.282 111.820  1.00  0.00     0.159 A 
ATOM      6  N   UNL     1     116.644 159.388 112.645  1.00  0.00    -0.281 N 
ATOM      7  C   UNL     1     116.959 158.010 112.781  1.00  0.00     0.058 A 
ATOM      8  C   UNL     1     116.834 157.403 114.044  1.00  0.00     0.029 A 
ATOM      9  C   UNL     1     117.183 156.064 114.228  1.00  0.00     0.023 A 
ATOM     10  C   UNL     1     117.668 155.323 113.158  1.00  0.00     0.041 A 
ATOM     11  Cl  UNL     1     118.107 153.676 113.388  1.00  0.00    -0.084 Cl
ATOM     12  C   UNL     1     117.803 155.906 111.901  1.00  0.00     0.033 A 
ATOM     13  C   UNL     1     117.446 157.252 111.694  1.00  0.00     0.026 A 
ATOM     14  C   UNL     1     117.517 157.768 110.290  1.00  0.00     0.076 C 
ATOM     15  N   UNL     1     117.920 158.936 109.927  1.00  0.00    -0.276 NA
ATOM     16  C   UNL     1     118.396 159.886 110.923  1.00  0.00     0.220 C 
ENDROOT
BRANCH  14  17
ATOM     17  C   UNL     1     117.039 156.873 109.204  1.00  0.00     0.019 A 
ATOM     18  C   UNL     1     115.711 156.431 109.259  1.00  0.00     0.012 A 
ATOM     19  C   UNL     1     117.867 156.497 108.141  1.00  0.00     0.050 A 
ATOM     20  C   UNL     1     115.215 155.602 108.252  1.00  0.00     0.001 A 
ATOM     21  C   UNL     1     117.361 155.665 107.138  1.00  0.00     0.021 A 
ATOM     22  C   UNL     1     116.039 155.219 107.194  1.00  0.00     0.002 A 
ATOM     23  Cl  UNL     1     119.525 156.970 108.045  1.00  0.00    -0.084 Cl
ENDBRANCH  14  17
TORSDOF 1
ENDMDL
MODEL 3
REMARK VINA RESULT:    -8.726      2.525      6.421
REMARK INTER + INTRA:          -9.309
REMARK INTER:                 -10.636
REMARK INTRA:                   1.327
REMARK UNBOUND:                -0.074
REMARK SMILES Cc1nnc2n1-c1ccc(Cl)cc1C(c1ccccc1Cl)=NC2
REMARK SMILES IDX 1 1 2 2 3 3 4 4 5 5 6 6 7 7 8 8 9 9 10 10 11 11 12 12 13 13
REMARK SMILES IDX 14 14 22 15 23 16 15 17 16 18 20 19 17 20 19 21 18 22 21 23
REMARK H PARENT
ROOT
ATOM      1  C   UNL     1     117.655 156.483 106.290  1.00  0.00     0.090 C 
ATOM      2  C   UNL     1     117.684 156.165 107.737  1.00  0.00     0.134 A 
ATOM      3  N   UNL     1     116.964 155.213 108.297  1.00  0.00    -0.135 NA
ATOM      4  N   UNL     1     117.117 155.298 109.650  1.00  0.00    -0.133 NA
ATOM      5  C   UNL     1     117.933 156.297 109.905  1.00  0.00     0.159 A 
ATOM      6  N   UNL     1     118.364 156.864 108.725  1.00  0.00    -0.281 N 
ATOM      7  C   UNL     1     119.341 157.887 108.607  1.00  0.00     0.058 A 
ATOM      8  C   UNL     1     120.216 157.871 107.506  1.00  0.00     0.029 A 
ATOM      9  C   UNL     1     121.223 158.830 107.382  1.00  0.00     0.023 A 
ATOM     10  C   UNL     1     121.371 159.807 108.358  1.00  0.00     0.041 A 
ATOM     11  Cl  UNL     1     122.617 160.982 108.209  1.00  0.00    -0.084 Cl
ATOM     12  C   UNL     1     120.516 159.839 109.457  1.00  0.00     0.033 A 
ATOM     13  C   UNL     1     119.490 158.886 109.593  1.00  0.00     0.026 A 
ATOM     14  C   UNL     1     118.548 159.059 110.746  1.00  0.00     0.076 C 
ATOM     15  N   UNL     1     118.054 158.118 111.473  1.00  0.00    -0.276 NA
ATOM     16  C   UNL     1     118.427 156.732 111.227  1.00  0.00     0.220 C 
ENDROOT
BRANCH  14  17
ATOM     17  C   UNL     1     118.098 160.439 111.064  1.00  0.00     0.019 A 
ATOM     18  C   UNL     1     118.754 161.503 110.432  1.00  0.00     0.012 A 
ATOM     19  C   UNL     1     117.036 160.683 111.943  1.00  0.00     0.050 A 
ATOM     20  C   UNL     1     118.354 162.814 110.690  1.00  0.00     0.001 A 
ATOM     21  C   UNL     1     116.644 162.001 112.195  1.00  0.00     0.021 A 
ATOM     22  C   UNL     1     117.301 163.063 111.570  1.00  0.00     0.002 A 
ATOM     23  Cl  UNL     1     116.223 159.417 112.788  1.00  0.00    -0.084 Cl
ENDBRANCH  14  17
TORSDOF 1
ENDMDL
MODEL 4
REMARK VINA RESULT:    -7.829      4.428      7.334
REMARK INTER + INTRA:          -8.360
REMARK INTER:                  -7.749
REMARK INTRA:                  -0.611
REMARK UNBOUND:                -0.074
REMARK SMILES Cc1nnc2n1-c1ccc(Cl)cc1C(c1ccccc1Cl)=NC2
REMARK SMILES IDX 1 1 2 2 3 3 4 4 5 5 6 6 7 7 8 8 9 9 10 10 11 11 12 12 13 13
REMARK SMILES IDX 14 14 22 15 23 16 15 17 16 18 20 19 17 20 19 21 18 22 21 23
REMARK H PARENT
ROOT
ATOM      1  C   UNL     1     115.945 153.887 117.010  1.00  0.00     0.090 C 
ATOM      2  C   UNL     1     116.340 155.177 117.624  1.00  0.00     0.134 A 
ATOM      3  N   UNL     1     116.377 155.393 118.924  1.00  0.00    -0.135 NA
ATOM      4  N   UNL     1     116.628 156.718 119.132  1.00  0.00    -0.133 NA
ATOM      5  C   UNL     1     116.747 157.298 117.957  1.00  0.00     0.159 A 
ATOM      6  N   UNL     1     116.616 156.362 116.955  1.00  0.00    -0.281 N 
ATOM      7  C   UNL     1     116.803 156.602 115.568  1.00  0.00     0.058 A 
ATOM      8  C   UNL     1     117.377 155.594 114.773  1.00  0.00     0.029 A 
ATOM      9  C   UNL     1     117.623 155.812 113.416  1.00  0.00     0.023 A 
ATOM     10  C   UNL     1     117.309 157.038 112.845  1.00  0.00     0.041 A 
ATOM     11  Cl  UNL     1     117.622 157.308 111.175  1.00  0.00    -0.084 Cl
ATOM     12  C   UNL     1     116.742 158.050 113.616  1.00  0.00     0.033 A 
ATOM     13  C   UNL     1     116.477 157.844 114.982  1.00  0.00     0.026 A 
ATOM     14  C   UNL     1     115.767 158.944 115.712  1.00  0.00     0.076 C 
ATOM     15  N   UNL     1     116.002 159.335 116.915  1.00  0.00    -0.276 NA
ATOM     16  C   UNL     1     117.068 158.715 117.690  1.00  0.00     0.220 C 
ENDROOT
BRANCH  14  17
ATOM     17  C   UNL     1     114.652 159.627 115.006  1.00  0.00     0.019 A 
ATOM     18  C   UNL     1     114.919 160.863 114.402  1.00  0.00     0.012 A 
ATOM     19  C   UNL     1     113.378 159.055 114.915  1.00  0.00     0.050 A 
ATOM     20  C   UNL     1     113.906 161.532 113.715  1.00  0.00     0.001 A 
ATOM     21  C   UNL     1     112.369 159.734 114.226  1.00  0.00     0.021 A 
ATOM     22  C   UNL     1     112.632 160.969 113.628  1.00  0.00     0.002 A 
ATOM     23  Cl  UNL     1     112.976 157.561 115.680  1.00  0.00    -0.084 Cl
ENDBRANCH  14  17
TORSDOF 1
ENDMDL
MODEL 5
REMARK VINA RESULT:    -7.286      3.710      7.172
REMARK INTER + INTRA:          -7.785
REMARK INTER:                  -7.185
REMARK INTRA:                  -0.601
REMARK UNBOUND:                -0.074
REMARK SMILES Cc1nnc2n1-c1ccc(Cl)cc1C(c1ccccc1Cl)=NC2
REMARK SMILES IDX 1 1 2 2 3 3 4 4 5 5 6 6 7 7 8 8 9 9 10 10 11 11 12 12 13 13
REMARK SMILES IDX 14 14 22 15 23 16 15 17 16 18 20 19 17 20 19 21 18 22 21 23
REMARK H PARENT
ROOT
ATOM      1  C   UNL     1     116.575 156.086 111.025  1.00  0.00     0.090 C 
ATOM      2  C   UNL     1     116.615 156.285 112.493  1.00  0.00     0.134 A 
ATOM      3  N   UNL     1     116.561 155.303 113.371  1.00  0.00    -0.135 NA
ATOM      4  N   UNL     1     116.465 155.848 114.619  1.00  0.00    -0.133 NA
ATOM      5  C   UNL     1     116.467 157.157 114.491  1.00  0.00     0.159 A 
ATOM      6  N   UNL     1     116.603 157.500 113.164  1.00  0.00    -0.281 N 
ATOM      7  C   UNL     1     116.763 158.819 112.662  1.00  0.00     0.058 A 
ATOM      8  C   UNL     1     117.594 159.028 111.547  1.00  0.00     0.029 A 
ATOM      9  C   UNL     1     117.815 160.316 111.056  1.00  0.00     0.023 A 
ATOM     10  C   UNL     1     117.218 161.405 111.678  1.00  0.00     0.041 A 
ATOM     11  Cl  UNL     1     117.500 162.992 111.078  1.00  0.00    -0.084 Cl
ATOM     12  C   UNL     1     116.394 161.219 112.785  1.00  0.00     0.033 A 
ATOM     13  C   UNL     1     116.152 159.927 113.287  1.00  0.00     0.026 A 
ATOM     14  C   UNL     1     115.168 159.806 114.411  1.00  0.00     0.076 C 
ATOM     15  N   UNL     1     115.263 159.019 115.426  1.00  0.00    -0.276 NA
ATOM     16  C   UNL     1     116.429 158.160 115.576  1.00  0.00     0.220 C 
ENDROOT
BRANCH  14  17
ATOM     17  C   UNL     1     113.937 160.636 114.338  1.00  0.00     0.019 A 
ATOM     18  C   UNL     1     112.861 160.146 113.585  1.00  0.00     0.012 A 
ATOM     19  C   UNL     1     113.830 161.856 115.015  1.00  0.00     0.050 A 
ATOM     20  C   UNL     1     111.681 160.884 113.502  1.00  0.00     0.001 A 
ATOM     21  C   UNL     1     112.643 162.589 114.924  1.00  0.00     0.021 A 
ATOM     22  C   UNL     1     111.572 162.104 114.169  1.00  0.00     0.002 A 
ATOM     23  Cl  UNL     1     115.137 162.534 115.915  1.00  0.00    -0.084 Cl
ENDBRANCH  14  17
TORSDOF 1
ENDMDL
MODEL 6
REMARK VINA RESULT:    -7.273      3.680      6.600
REMARK INTER + INTRA:          -7.772
REMARK INTER:                  -7.160
REMARK INTRA:                  -0.611
REMARK UNBOUND:                -0.074
REMARK SMILES Cc1nnc2n1-c1ccc(Cl)cc1C(c1ccccc1Cl)=NC2
REMARK SMILES IDX 1 1 2 2 3 3 4 4 5 5 6 6 7 7 8 8 9 9 10 10 11 11 12 12 13 13
REMARK SMILES IDX 14 14 22 15 23 16 15 17 16 18 20 19 17 20 19 21 18 22 21 23
REMARK H PARENT
ROOT
ATOM      1  C   UNL     1     116.643 163.595 113.435  1.00  0.00     0.090 C 
ATOM      2  C   UNL     1     115.328 162.965 113.702  1.00  0.00     0.134 A 
ATOM      3  N   UNL     1     114.262 163.628 114.104  1.00  0.00    -0.135 NA
ATOM      4  N   UNL     1     113.281 162.725 114.399  1.00  0.00    -0.133 NA
ATOM      5  C   UNL     1     113.756 161.520 114.170  1.00  0.00     0.159 A 
ATOM      6  N   UNL     1     115.042 161.606 113.683  1.00  0.00    -0.281 N 
ATOM      7  C   UNL     1     115.825 160.518 113.216  1.00  0.00     0.058 A 
ATOM      8  C   UNL     1     116.695 160.721 112.130  1.00  0.00     0.029 A 
ATOM      9  C   UNL     1     117.443 159.663 111.609  1.00  0.00     0.023 A 
ATOM     10  C   UNL     1     117.322 158.394 112.160  1.00  0.00     0.041 A 
ATOM     11  Cl  UNL     1     118.236 157.090 111.512  1.00  0.00    -0.084 Cl
ATOM     12  C   UNL     1     116.463 158.172 113.234  1.00  0.00     0.033 A 
ATOM     13  C   UNL     1     115.710 159.228 113.778  1.00  0.00     0.026 A 
ATOM     14  C   UNL     1     114.896 158.927 115.000  1.00  0.00     0.076 C 
ATOM     15  N   UNL     1     113.717 159.375 115.259  1.00  0.00    -0.276 NA
ATOM     16  C   UNL     1     113.036 160.237 114.303  1.00  0.00     0.220 C 
ENDROOT
BRANCH  14  17
ATOM     17  C   UNL     1     115.514 158.066 116.041  1.00  0.00     0.019 A 
ATOM     18  C   UNL     1     116.375 158.672 116.965  1.00  0.00     0.012 A 
ATOM     19  C   UNL     1     115.234 156.697 116.126  1.00  0.00     0.050 A 
ATOM     20  C   UNL     1     116.966 157.904 117.969  1.00  0.00     0.001 A 
ATOM     21  C   UNL     1     115.832 155.936 117.135  1.00  0.00     0.021 A 
ATOM     22  C   UNL     1     116.695 156.538 118.053  1.00  0.00     0.002 A 
ATOM     23  Cl  UNL     1     114.222 155.886 114.987  1.00  0.00    -0.084 Cl
ENDBRANCH  14  17
TORSDOF 1
ENDMDL
MODEL 7
REMARK VINA RESULT:    -7.235      2.666      5.823
REMARK INTER + INTRA:          -7.732
REMARK INTER:                  -8.100
REMARK INTRA:                   0.368
REMARK UNBOUND:                -0.074
REMARK SMILES Cc1nnc2n1-c1ccc(Cl)cc1C(c1ccccc1Cl)=NC2
REMARK SMILES IDX 1 1 2 2 3 3 4 4 5 5 6 6 7 7 8 8 9 9 10 10 11 11 12 12 13 13
REMARK SMILES IDX 14 14 22 15 23 16 15 17 16 18 20 19 17 20 19 21 18 22 21 23
REMARK H PARENT
ROOT
ATOM      1  C   UNL     1     114.685 156.338 108.642  1.00  0.00     0.090 C 
ATOM      2  C   UNL     1     115.597 156.251 109.807  1.00  0.00     0.134 A 
ATOM      3  N   UNL     1     115.197 156.002 111.038  1.00  0.00    -0.135 NA
ATOM      4  N   UNL     1     116.267 156.147 111.874  1.00  0.00    -0.133 NA
ATOM      5  C   UNL     1     117.310 156.477 111.145  1.00  0.00     0.159 A 
ATOM      6  N   UNL     1     116.959 156.518 109.813  1.00  0.00    -0.281 N 
ATOM      7  C   UNL     1     117.851 156.723 108.728  1.00  0.00     0.058 A 
ATOM      8  C   UNL     1     117.620 156.045 107.517  1.00  0.00     0.029 A 
ATOM      9  C   UNL     1     118.503 156.182 106.445  1.00  0.00     0.023 A 
ATOM     10  C   UNL     1     119.628 156.986 106.574  1.00  0.00     0.041 A 
ATOM     11  Cl  UNL     1     120.720 157.145 105.255  1.00  0.00    -0.084 Cl
ATOM     12  C   UNL     1     119.877 157.663 107.765  1.00  0.00     0.033 A 
ATOM     13  C   UNL     1     118.992 157.545 108.852  1.00  0.00     0.026 A 
ATOM     14  C   UNL     1     119.275 158.392 110.056  1.00  0.00     0.076 C 
ATOM     15  N   UNL     1     119.136 158.038 111.286  1.00  0.00    -0.276 NA
ATOM     16  C   UNL     1     118.695 156.689 111.613  1.00  0.00     0.220 C 
ENDROOT
BRANCH  14  17
ATOM     17  C   UNL     1     119.716 159.792 109.822  1.00  0.00     0.019 A 
ATOM     18  C   UNL     1     120.868 159.994 109.051  1.00  0.00     0.012 A 
ATOM     19  C   UNL     1     119.000 160.884 110.326  1.00  0.00     0.050 A 
ATOM     20  C   UNL     1     121.309 161.292 108.793  1.00  0.00     0.001 A 
ATOM     21  C   UNL     1     119.451 162.180 110.063  1.00  0.00     0.021 A 
ATOM     22  C   UNL     1     120.603 162.383 109.299  1.00  0.00     0.002 A 
ATOM     23  Cl  UNL     1     117.603 160.695 111.322  1.00  0.00    -0.084 Cl
ENDBRANCH  14  17
TORSDOF 1
ENDMDL
MODEL 8
REMARK VINA RESULT:    -6.941      3.854      6.882
REMARK INTER + INTRA:          -7.421
REMARK INTER:                  -7.016
REMARK INTRA:                  -0.404
REMARK UNBOUND:                -0.074
REMARK SMILES Cc1nnc2n1-c1ccc(Cl)cc1C(c1ccccc1Cl)=NC2
REMARK SMILES IDX 1 1 2 2 3 3 4 4 5 5 6 6 7 7 8 8 9 9 10 10 11 11 12 12 13 13
REMARK SMILES IDX 14 14 22 15 23 16 15 17 16 18 20 19 17 20 19 21 18 22 21 23
REMARK H PARENT
ROOT
ATOM      1  C   UNL     1     116.313 163.563 113.623  1.00  0.00     0.090 C 
ATOM      2  C   UNL     1     115.020 162.888 113.888  1.00  0.00     0.134 A 
ATOM      3  N   UNL     1     113.927 163.516 114.272  1.00  0.00    -0.135 NA
ATOM      4  N   UNL     1     112.978 162.581 114.571  1.00  0.00    -0.133 NA
ATOM      5  C   UNL     1     113.499 161.392 114.362  1.00  0.00     0.159 A 
ATOM      6  N   UNL     1     114.785 161.520 113.885  1.00  0.00    -0.281 N 
ATOM      7  C   UNL     1     115.612 160.455 113.438  1.00  0.00     0.058 A 
ATOM      8  C   UNL     1     116.483 160.676 112.357  1.00  0.00     0.029 A 
ATOM      9  C   UNL     1     117.274 159.640 111.857  1.00  0.00     0.023 A 
ATOM     10  C   UNL     1     117.196 158.375 112.424  1.00  0.00     0.041 A 
ATOM     11  Cl  UNL     1     118.164 157.097 111.801  1.00  0.00    -0.084 Cl
ATOM     12  C   UNL     1     116.337 158.135 113.494  1.00  0.00     0.033 A 
ATOM     13  C   UNL     1     115.540 159.170 114.017  1.00  0.00     0.026 A 
ATOM     14  C   UNL     1     114.727 158.855 115.236  1.00  0.00     0.076 C 
ATOM     15  N   UNL     1     113.530 159.262 115.480  1.00  0.00    -0.276 NA
ATOM     16  C   UNL     1     112.826 160.085 114.507  1.00  0.00     0.220 C 
ENDROOT
BRANCH  14  17
ATOM     17  C   UNL     1     115.368 158.031 116.294  1.00  0.00     0.019 A 
ATOM     18  C   UNL     1     115.298 156.637 116.171  1.00  0.00     0.012 A 
ATOM     19  C   UNL     1     116.048 158.613 117.371  1.00  0.00     0.050 A 
ATOM     20  C   UNL     1     115.899 155.825 117.133  1.00  0.00     0.001 A 
ATOM     21  C   UNL     1     116.646 157.791 118.330  1.00  0.00     0.021 A 
ATOM     22  C   UNL     1     116.571 156.401 118.211  1.00  0.00     0.002 A 
ATOM     23  Cl  UNL     1     116.126 160.322 117.602  1.00  0.00    -0.084 Cl
ENDBRANCH  14  17
TORSDOF 1
ENDMDL
