MODEL 1
REMARK VINA RESULT:    -7.545      0.000      0.000
REMARK INTER + INTRA:          -9.586
REMARK INTER:                  -8.868
REMARK INTRA:                  -0.717
REMARK UNBOUND:                -0.717
REMARK SMILES Cc1ccc(-c2nc3ccc(C)cn3c2CC(=O)N(C)C)cc1
REMARK SMILES IDX 6 1 7 2 8 3 9 4 10 5 11 6 12 7 13 8 14 9 15 10 5 11 2 12
REMARK SMILES IDX 3 13 23 14 4 15 22 16 1 17 16 18 17 19 18 20 19 21 20 22
REMARK SMILES IDX 21 23
REMARK H PARENT
ROOT
ATOM      1  C   UNL     1     143.800  96.074 138.619  1.00  0.00     0.093 A 
ATOM      2  N   UNL     1     144.777  95.142 138.367  1.00  0.00    -0.228 NA
ATOM      3  C   UNL     1     144.967  95.177 137.068  1.00  0.00     0.137 A 
ATOM      4  C   UNL     1     145.831  94.412 136.236  1.00  0.00     0.048 C 
ATOM      5  C   UNL     1     145.825  94.605 134.904  1.00  0.00     0.009 C 
ATOM      6  C   UNL     1     144.947  95.589 134.277  1.00  0.00    -0.034 C 
ATOM      7  C   UNL     1     144.999  95.730 132.789  1.00  0.00     0.046 C 
ATOM      8  C   UNL     1     144.138  96.319 135.069  1.00  0.00     0.096 C 
ATOM      9  N   UNL     1     144.154  96.126 136.453  1.00  0.00    -0.303 N 
ATOM     10  C   UNL     1     143.442  96.757 137.465  1.00  0.00     0.060 A 
ENDROOT
BRANCH   1  11
ATOM     11  C   UNL     1     143.296  96.295 139.961  1.00  0.00     0.002 A 
ATOM     12  C   UNL     1     142.370  96.737 142.585  1.00  0.00    -0.051 A 
ATOM     13  C   UNL     1     143.679  97.078 142.228  1.00  0.00     0.004 A 
ATOM     14  C   UNL     1     141.527  96.175 141.619  1.00  0.00     0.004 A 
ATOM     15  C   UNL     1     144.141  96.847 140.930  1.00  0.00     0.011 A 
ATOM     16  C   UNL     1     141.990  95.945 140.320  1.00  0.00     0.011 A 
ATOM     17  C   UNL     1     141.865  97.009 143.971  1.00  0.00     0.044 C 
ENDBRANCH   1  11
BRANCH  10  18
ATOM     18  C   UNL     1     142.518  97.911 137.231  1.00  0.00     0.157 C 
BRANCH  18  19
ATOM     19  C   UNL     1     141.205  97.464 136.589  1.00  0.00     0.228 C 
ATOM     20  O   UNL     1     140.442  96.738 137.233  1.00  0.00    -0.274 OA
ATOM     21  N   UNL     1     140.903  97.882 135.300  1.00  0.00    -0.348 N 
ATOM     22  C   UNL     1     141.728  98.765 134.491  1.00  0.00     0.146 C 
ATOM     23  C   UNL     1     139.728  97.335 134.640  1.00  0.00     0.146 C 
ENDBRANCH  18  19
ENDBRANCH  10  18
TORSDOF 3
ENDMDL
MODEL 2
REMARK VINA RESULT:    -7.197      2.417      4.922
REMARK INTER + INTRA:          -9.176
REMARK INTER:                  -8.526
REMARK INTRA:                  -0.651
REMARK UNBOUND:                -0.717
REMARK SMILES Cc1ccc(-c2nc3ccc(C)cn3c2CC(=O)N(C)C)cc1
REMARK SMILES IDX 6 1 7 2 8 3 9 4 10 5 11 6 12 7 13 8 14 9 15 10 5 11 2 12
REMARK SMILES IDX 3 13 23 14 4 15 22 16 1 17 16 18 17 19 18 20 19 21 20 22
REMARK SMILES IDX 21 23
REMARK H PARENT
ROOT
ATOM      1  C   UNL     1     141.261  97.740 136.486  1.00  0.00     0.093 A 
ATOM      2  N   UNL     1     140.414  98.821 136.451  1.00  0.00    -0.228 NA
ATOM      3  C   UNL     1     140.231  99.080 135.177  1.00  0.00     0.137 A 
ATOM      4  C   UNL     1     139.479 100.105 134.538  1.00  0.00     0.048 C 
ATOM      5  C   UNL     1     139.470 100.194 133.195  1.00  0.00     0.009 C 
ATOM      6  C   UNL     1     140.219  99.258 132.362  1.00  0.00    -0.034 C 
ATOM      7  C   UNL     1     140.161  99.436 130.878  1.00  0.00     0.046 C 
ATOM      8  C   UNL     1     140.921  98.282 132.970  1.00  0.00     0.096 C 
ATOM      9  N   UNL     1     140.919  98.184 134.364  1.00  0.00    -0.303 N 
ATOM     10  C   UNL     1     141.537  97.271 135.209  1.00  0.00     0.060 A 
ENDROOT
BRANCH   1  11
ATOM     11  C   UNL     1     141.721  97.182 137.744  1.00  0.00     0.002 A 
ATOM     12  C   UNL     1     142.565  96.111 140.209  1.00  0.00    -0.051 A 
ATOM     13  C   UNL     1     141.219  96.430 139.998  1.00  0.00     0.004 A 
ATOM     14  C   UNL     1     143.486  96.330 139.177  1.00  0.00     0.004 A 
ATOM     15  C   UNL     1     140.804  96.973 138.779  1.00  0.00     0.011 A 
ATOM     16  C   UNL     1     143.069  96.872 137.958  1.00  0.00     0.011 A 
ATOM     17  C   UNL     1     143.008  95.503 141.507  1.00  0.00     0.044 C 
ENDBRANCH   1  11
BRANCH  10  18
ATOM     18  C   UNL     1     142.306  96.082 134.724  1.00  0.00     0.157 C 
BRANCH  18  19
ATOM     19  C   UNL     1     143.654  96.485 134.129  1.00  0.00     0.228 C 
ATOM     20  O   UNL     1     144.427  97.169 134.808  1.00  0.00    -0.274 OA
ATOM     21  N   UNL     1     143.978  96.076 132.842  1.00  0.00    -0.348 N 
ATOM     22  C   UNL     1     143.143  95.241 131.994  1.00  0.00     0.146 C 
ATOM     23  C   UNL     1     145.194  96.586 132.227  1.00  0.00     0.146 C 
ENDBRANCH  18  19
ENDBRANCH  10  18
TORSDOF 3
ENDMDL
MODEL 3
REMARK VINA RESULT:    -7.002      1.560      1.835
REMARK INTER + INTRA:          -8.947
REMARK INTER:                  -8.317
REMARK INTRA:                  -0.630
REMARK UNBOUND:                -0.717
REMARK SMILES Cc1ccc(-c2nc3ccc(C)cn3c2CC(=O)N(C)C)cc1
REMARK SMILES IDX 6 1 7 2 8 3 9 4 10 5 11 6 12 7 13 8 14 9 15 10 5 11 2 12
REMARK SMILES IDX 3 13 23 14 4 15 22 16 1 17 16 18 17 19 18 20 19 21 20 22
REMARK SMILES IDX 21 23
REMARK H PARENT
ROOT
ATOM      1  C   UNL     1     143.097  95.403 137.572  1.00  0.00     0.093 A 
ATOM      2  N   UNL     1     144.416  95.161 137.276  1.00  0.00    -0.228 NA
ATOM      3  C   UNL     1     144.492  95.193 135.966  1.00  0.00     0.137 A 
ATOM      4  C   UNL     1     145.597  94.980 135.095  1.00  0.00     0.048 C 
ATOM      5  C   UNL     1     145.421  95.030 133.762  1.00  0.00     0.009 C 
ATOM      6  C   UNL     1     144.113  95.300 133.172  1.00  0.00    -0.034 C 
ATOM      7  C   UNL     1     144.007  95.327 131.681  1.00  0.00     0.046 C 
ATOM      8  C   UNL     1     143.071  95.513 133.999  1.00  0.00     0.096 C 
ATOM      9  N   UNL     1     143.258  95.472 135.384  1.00  0.00    -0.303 N 
ATOM     10  C   UNL     1     142.362  95.674 136.426  1.00  0.00     0.060 A 
ENDROOT
BRANCH   1  11
ATOM     11  C   UNL     1     142.619  95.410 138.942  1.00  0.00     0.002 A 
ATOM     12  C   UNL     1     141.712  95.371 141.608  1.00  0.00    -0.051 A 
ATOM     13  C   UNL     1     142.533  94.346 141.124  1.00  0.00     0.004 A 
ATOM     14  C   UNL     1     141.350  96.416 140.750  1.00  0.00     0.004 A 
ATOM     15  C   UNL     1     142.972  94.361 139.797  1.00  0.00     0.011 A 
ATOM     16  C   UNL     1     141.791  96.430 139.424  1.00  0.00     0.011 A 
ATOM     17  C   UNL     1     141.262  95.371 143.039  1.00  0.00     0.044 C 
ENDBRANCH   1  11
BRANCH  10  18
ATOM     18  C   UNL     1     140.939  96.091 136.225  1.00  0.00     0.157 C 
BRANCH  18  19
ATOM     19  C   UNL     1     140.829  97.572 135.861  1.00  0.00     0.228 C 
ATOM     20  O   UNL     1     141.441  98.401 136.542  1.00  0.00    -0.274 OA
ATOM     21  N   UNL     1     140.045  97.950 134.779  1.00  0.00    -0.348 N 
ATOM     22  C   UNL     1     139.325  97.035 133.908  1.00  0.00     0.146 C 
ATOM     23  C   UNL     1     139.825  99.365 134.530  1.00  0.00     0.146 C 
ENDBRANCH  18  19
ENDBRANCH  10  18
TORSDOF 3
ENDMDL
MODEL 4
REMARK VINA RESULT:    -6.988      1.973      4.132
REMARK INTER + INTRA:          -8.931
REMARK INTER:                  -8.104
REMARK INTRA:                  -0.827
REMARK UNBOUND:                -0.717
REMARK SMILES Cc1ccc(-c2nc3ccc(C)cn3c2CC(=O)N(C)C)cc1
REMARK SMILES IDX 6 1 7 2 8 3 9 4 10 5 11 6 12 7 13 8 14 9 15 10 5 11 2 12
REMARK SMILES IDX 3 13 23 14 4 15 22 16 1 17 16 18 17 19 18 20 19 21 20 22
REMARK SMILES IDX 21 23
REMARK H PARENT
ROOT
ATOM      1  C   UNL     1     142.464  96.900 137.179  1.00  0.00     0.093 A 
ATOM      2  N   UNL     1     141.858  98.017 136.658  1.00  0.00    -0.228 NA
ATOM      3  C   UNL     1     141.948  97.888 135.355  1.00  0.00     0.137 A 
ATOM      4  C   UNL     1     141.525  98.751 134.306  1.00  0.00     0.048 C 
ATOM      5  C   UNL     1     141.762  98.417 133.024  1.00  0.00     0.009 C 
ATOM      6  C   UNL     1     142.449  97.178 132.671  1.00  0.00    -0.034 C 
ATOM      7  C   UNL     1     142.680  96.891 131.221  1.00  0.00     0.046 C 
ATOM      8  C   UNL     1     142.838  96.357 133.666  1.00  0.00     0.096 C 
ATOM      9  N   UNL     1     142.580  96.700 134.996  1.00  0.00    -0.303 N 
ATOM     10  C   UNL     1     142.859  96.024 136.177  1.00  0.00     0.060 A 
ENDROOT
BRANCH   1  11
ATOM     11  C   UNL     1     142.589  96.707 138.611  1.00  0.00     0.002 A 
ATOM     12  C   UNL     1     142.775  96.336 141.398  1.00  0.00    -0.051 A 
ATOM     13  C   UNL     1     141.533  96.280 140.757  1.00  0.00     0.004 A 
ATOM     14  C   UNL     1     143.924  96.577 140.635  1.00  0.00     0.004 A 
ATOM     15  C   UNL     1     141.441  96.476 139.376  1.00  0.00     0.011 A 
ATOM     16  C   UNL     1     143.831  96.772 139.254  1.00  0.00     0.011 A 
ATOM     17  C   UNL     1     142.880  96.098 142.875  1.00  0.00     0.044 C 
ENDBRANCH   1  11
BRANCH  10  18
ATOM     18  C   UNL     1     143.458  94.653 136.225  1.00  0.00     0.157 C 
BRANCH  18  19
ATOM     19  C   UNL     1     144.965  94.685 135.970  1.00  0.00     0.228 C 
ATOM     20  O   UNL     1     145.678  95.388 136.693  1.00  0.00    -0.274 OA
ATOM     21  N   UNL     1     145.496  93.928 134.935  1.00  0.00    -0.348 N 
ATOM     22  C   UNL     1     144.731  93.048 134.064  1.00  0.00     0.146 C 
ATOM     23  C   UNL     1     146.904  94.077 134.603  1.00  0.00     0.146 C 
ENDBRANCH  18  19
ENDBRANCH  10  18
TORSDOF 3
ENDMDL
MODEL 5
REMARK VINA RESULT:    -6.835      2.397      6.897
REMARK INTER + INTRA:          -8.751
REMARK INTER:                  -7.696
REMARK INTRA:                  -1.055
REMARK UNBOUND:                -0.717
REMARK SMILES Cc1ccc(-c2nc3ccc(C)cn3c2CC(=O)N(C)C)cc1
REMARK SMILES IDX 6 1 7 2 8 3 9 4 10 5 11 6 12 7 13 8 14 9 15 10 5 11 2 12
REMARK SMILES IDX 3 13 23 14 4 15 22 16 1 17 16 18 17 19 18 20 19 21 20 22
REMARK SMILES IDX 21 23
REMARK H PARENT
ROOT
ATOM      1  C   UNL     1     140.554  96.873 135.644  1.00  0.00     0.093 A 
ATOM      2  N   UNL     1     140.092  97.447 136.803  1.00  0.00    -0.228 NA
ATOM      3  C   UNL     1     140.803  96.909 137.767  1.00  0.00     0.137 A 
ATOM      4  C   UNL     1     140.746  97.094 139.177  1.00  0.00     0.048 C 
ATOM      5  C   UNL     1     141.566  96.392 139.980  1.00  0.00     0.009 C 
ATOM      6  C   UNL     1     142.526  95.432 139.443  1.00  0.00    -0.034 C 
ATOM      7  C   UNL     1     143.391  94.688 140.410  1.00  0.00     0.046 C 
ATOM      8  C   UNL     1     142.585  95.267 138.108  1.00  0.00     0.096 C 
ATOM      9  N   UNL     1     141.741  96.006 137.274  1.00  0.00    -0.303 N 
ATOM     10  C   UNL     1     141.628  96.029 135.890  1.00  0.00     0.060 A 
ENDROOT
BRANCH   1  11
ATOM     11  C   UNL     1     139.974  97.202 134.356  1.00  0.00     0.002 A 
ATOM     12  C   UNL     1     138.827  97.788 131.850  1.00  0.00    -0.051 A 
ATOM     13  C   UNL     1     138.531  96.586 132.501  1.00  0.00     0.004 A 
ATOM     14  C   UNL     1     139.698  98.697 132.462  1.00  0.00     0.004 A 
ATOM     15  C   UNL     1     139.111  96.291 133.738  1.00  0.00     0.011 A 
ATOM     16  C   UNL     1     140.276  98.401 133.701  1.00  0.00     0.011 A 
ATOM     17  C   UNL     1     138.185  98.118 130.535  1.00  0.00     0.044 C 
ENDBRANCH   1  11
BRANCH  10  18
ATOM     18  C   UNL     1     142.528  95.262 134.972  1.00  0.00     0.157 C 
BRANCH  18  19
ATOM     19  C   UNL     1     143.594  96.161 134.345  1.00  0.00     0.228 C 
ATOM     20  O   UNL     1     144.480  96.629 135.066  1.00  0.00    -0.274 OA
ATOM     21  N   UNL     1     143.540  96.430 132.984  1.00  0.00    -0.348 N 
ATOM     22  C   UNL     1     142.554  95.890 132.062  1.00  0.00     0.146 C 
ATOM     23  C   UNL     1     144.465  97.402 132.422  1.00  0.00     0.146 C 
ENDBRANCH  18  19
ENDBRANCH  10  18
TORSDOF 3
ENDMDL
MODEL 6
REMARK VINA RESULT:    -6.663      2.819      6.560
REMARK INTER + INTRA:          -8.549
REMARK INTER:                  -7.516
REMARK INTRA:                  -1.033
REMARK UNBOUND:                -0.717
REMARK SMILES Cc1ccc(-c2nc3ccc(C)cn3c2CC(=O)N(C)C)cc1
REMARK SMILES IDX 6 1 7 2 8 3 9 4 10 5 11 6 12 7 13 8 14 9 15 10 5 11 2 12
REMARK SMILES IDX 3 13 23 14 4 15 22 16 1 17 16 18 17 19 18 20 19 21 20 22
REMARK SMILES IDX 21 23
REMARK H PARENT
ROOT
ATOM      1  C   UNL     1     141.071  95.865 134.931  1.00  0.00     0.093 A 
ATOM      2  N   UNL     1     141.125  94.816 135.817  1.00  0.00    -0.228 NA
ATOM      3  C   UNL     1     141.923  95.213 136.780  1.00  0.00     0.137 A 
ATOM      4  C   UNL     1     142.375  94.537 137.948  1.00  0.00     0.048 C 
ATOM      5  C   UNL     1     143.235  95.145 138.786  1.00  0.00     0.009 C 
ATOM      6  C   UNL     1     143.726  96.496 138.531  1.00  0.00    -0.034 C 
ATOM      7  C   UNL     1     144.687  97.091 139.509  1.00  0.00     0.046 C 
ATOM      8  C   UNL     1     143.287  97.138 137.430  1.00  0.00     0.096 C 
ATOM      9  N   UNL     1     142.385  96.509 136.568  1.00  0.00    -0.303 N 
ATOM     10  C   UNL     1     141.782  96.961 135.401  1.00  0.00     0.060 A 
ENDROOT
BRANCH   1  11
ATOM     11  C   UNL     1     140.301  95.779 133.705  1.00  0.00     0.002 A 
ATOM     12  C   UNL     1     138.757  95.615 131.354  1.00  0.00    -0.051 A 
ATOM     13  C   UNL     1     138.155  95.929 132.577  1.00  0.00     0.004 A 
ATOM     14  C   UNL     1     140.138  95.386 131.315  1.00  0.00     0.004 A 
ATOM     15  C   UNL     1     138.920  95.998 133.745  1.00  0.00     0.011 A 
ATOM     16  C   UNL     1     140.902  95.457 132.483  1.00  0.00     0.011 A 
ATOM     17  C   UNL     1     137.942  95.568 130.096  1.00  0.00     0.044 C 
ENDBRANCH   1  11
BRANCH  10  18
ATOM     18  C   UNL     1     141.944  98.351 134.869  1.00  0.00     0.157 C 
BRANCH  18  19
ATOM     19  C   UNL     1     140.613  99.102 134.835  1.00  0.00     0.228 C 
ATOM     20  O   UNL     1     140.048  99.366 135.901  1.00  0.00    -0.274 OA
ATOM     21  N   UNL     1     140.071  99.468 133.610  1.00  0.00    -0.348 N 
ATOM     22  C   UNL     1     140.689  99.228 132.316  1.00  0.00     0.146 C 
ATOM     23  C   UNL     1     138.737 100.047 133.576  1.00  0.00     0.146 C 
ENDBRANCH  18  19
ENDBRANCH  10  18
TORSDOF 3
ENDMDL
MODEL 7
REMARK VINA RESULT:    -6.499      2.471      6.858
REMARK INTER + INTRA:          -8.356
REMARK INTER:                  -7.415
REMARK INTRA:                  -0.941
REMARK UNBOUND:                -0.717
REMARK SMILES Cc1ccc(-c2nc3ccc(C)cn3c2CC(=O)N(C)C)cc1
REMARK SMILES IDX 6 1 7 2 8 3 9 4 10 5 11 6 12 7 13 8 14 9 15 10 5 11 2 12
REMARK SMILES IDX 3 13 23 14 4 15 22 16 1 17 16 18 17 19 18 20 19 21 20 22
REMARK SMILES IDX 21 23
REMARK H PARENT
ROOT
ATOM      1  C   UNL     1     140.841  97.489 135.315  1.00  0.00     0.093 A 
ATOM      2  N   UNL     1     140.223  97.085 136.474  1.00  0.00    -0.228 NA
ATOM      3  C   UNL     1     141.178  97.012 137.372  1.00  0.00     0.137 A 
ATOM      4  C   UNL     1     141.138  96.617 138.738  1.00  0.00     0.048 C 
ATOM      5  C   UNL     1     142.272  96.586 139.462  1.00  0.00     0.009 C 
ATOM      6  C   UNL     1     143.561  96.951 138.881  1.00  0.00    -0.034 C 
ATOM      7  C   UNL     1     144.772  96.878 139.755  1.00  0.00     0.046 C 
ATOM      8  C   UNL     1     143.594  97.335 137.590  1.00  0.00     0.096 C 
ATOM      9  N   UNL     1     142.413  97.378 136.843  1.00  0.00    -0.303 N 
ATOM     10  C   UNL     1     142.187  97.752 135.525  1.00  0.00     0.060 A 
ENDROOT
BRANCH   1  11
ATOM     11  C   UNL     1     140.097  97.649 134.080  1.00  0.00     0.002 A 
ATOM     12  C   UNL     1     138.666  97.905 131.667  1.00  0.00    -0.051 A 
ATOM     13  C   UNL     1     139.100  96.649 132.103  1.00  0.00     0.004 A 
ATOM     14  C   UNL     1     138.950  99.033 132.448  1.00  0.00     0.004 A 
ATOM     15  C   UNL     1     139.821  96.525 133.294  1.00  0.00     0.011 A 
ATOM     16  C   UNL     1     139.670  98.906 133.639  1.00  0.00     0.011 A 
ATOM     17  C   UNL     1     137.868  98.037 130.404  1.00  0.00     0.044 C 
ENDBRANCH   1  11
BRANCH  10  18
ATOM     18  C   UNL     1     143.251  98.303 134.626  1.00  0.00     0.157 C 
BRANCH  18  19
ATOM     19  C   UNL     1     144.000  97.193 133.889  1.00  0.00     0.228 C 
ATOM     20  O   UNL     1     144.748  96.449 134.532  1.00  0.00    -0.274 OA
ATOM     21  N   UNL     1     143.825  97.049 132.520  1.00  0.00    -0.348 N 
ATOM     22  C   UNL     1     142.937  97.858 131.700  1.00  0.00     0.146 C 
ATOM     23  C   UNL     1     144.651  96.091 131.802  1.00  0.00     0.146 C 
ENDBRANCH  18  19
ENDBRANCH  10  18
TORSDOF 3
ENDMDL
MODEL 8
REMARK VINA RESULT:    -6.256      2.448      6.837
REMARK INTER + INTRA:          -8.071
REMARK INTER:                  -7.087
REMARK INTRA:                  -0.983
REMARK UNBOUND:                -0.717
REMARK SMILES Cc1ccc(-c2nc3ccc(C)cn3c2CC(=O)N(C)C)cc1
REMARK SMILES IDX 6 1 7 2 8 3 9 4 10 5 11 6 12 7 13 8 14 9 15 10 5 11 2 12
REMARK SMILES IDX 3 13 23 14 4 15 22 16 1 17 16 18 17 19 18 20 19 21 20 22
REMARK SMILES IDX 21 23
REMARK H PARENT
ROOT
ATOM      1  C   UNL     1     141.825  96.780 133.568  1.00  0.00     0.093 A 
ATOM      2  N   UNL     1     141.993  97.651 132.520  1.00  0.00    -0.228 NA
ATOM      3  C   UNL     1     141.129  98.618 132.726  1.00  0.00     0.137 A 
ATOM      4  C   UNL     1     140.830  99.775 131.954  1.00  0.00     0.048 C 
ATOM      5  C   UNL     1     139.862 100.619 132.356  1.00  0.00     0.009 C 
ATOM      6  C   UNL     1     139.098 100.381 133.577  1.00  0.00    -0.034 C 
ATOM      7  C   UNL     1     138.034 101.366 133.944  1.00  0.00     0.046 C 
ATOM      8  C   UNL     1     139.392  99.291 134.312  1.00  0.00     0.096 C 
ATOM      9  N   UNL     1     140.406  98.422 133.899  1.00  0.00    -0.303 N 
ATOM     10  C   UNL     1     140.900  97.263 134.484  1.00  0.00     0.060 A 
ENDROOT
BRANCH   1  11
ATOM     11  C   UNL     1     142.595  95.555 133.663  1.00  0.00     0.002 A 
ATOM     12  C   UNL     1     144.138  93.206 133.860  1.00  0.00    -0.051 A 
ATOM     13  C   UNL     1     144.659  94.434 134.282  1.00  0.00     0.004 A 
ATOM     14  C   UNL     1     142.838  93.160 133.342  1.00  0.00     0.004 A 
ATOM     15  C   UNL     1     143.898  95.600 134.172  1.00  0.00     0.011 A 
ATOM     16  C   UNL     1     142.077  94.328 133.234  1.00  0.00     0.011 A 
ATOM     17  C   UNL     1     144.943  91.948 134.002  1.00  0.00     0.044 C 
ENDBRANCH   1  11
BRANCH  10  18
ATOM     18  C   UNL     1     140.449  96.750 135.816  1.00  0.00     0.157 C 
BRANCH  18  19
ATOM     19  C   UNL     1     141.369  97.220 136.943  1.00  0.00     0.228 C 
ATOM     20  O   UNL     1     141.347  98.409 137.276  1.00  0.00    -0.274 OA
ATOM     21  N   UNL     1     142.206  96.302 137.564  1.00  0.00    -0.348 N 
ATOM     22  C   UNL     1     142.265  94.882 137.257  1.00  0.00     0.146 C 
ATOM     23  C   UNL     1     143.182  96.781 138.529  1.00  0.00     0.146 C 
ENDBRANCH  18  19
ENDBRANCH  10  18
TORSDOF 3
ENDMDL
MODEL 9
REMARK VINA RESULT:    -6.103      1.552      6.009
REMARK INTER + INTRA:          -7.890
REMARK INTER:                  -7.263
REMARK INTRA:                  -0.627
REMARK UNBOUND:                -0.717
REMARK SMILES Cc1ccc(-c2nc3ccc(C)cn3c2CC(=O)N(C)C)cc1
REMARK SMILES IDX 6 1 7 2 8 3 9 4 10 5 11 6 12 7 13 8 14 9 15 10 5 11 2 12
REMARK SMILES IDX 3 13 23 14 4 15 22 16 1 17 16 18 17 19 18 20 19 21 20 22
REMARK SMILES IDX 21 23
REMARK H PARENT
ROOT
ATOM      1  C   UNL     1     143.179  95.628 136.986  1.00  0.00     0.093 A 
ATOM      2  N   UNL     1     143.874  94.873 137.899  1.00  0.00    -0.228 NA
ATOM      3  C   UNL     1     143.323  95.136 139.062  1.00  0.00     0.137 A 
ATOM      4  C   UNL     1     143.645  94.671 140.367  1.00  0.00     0.048 C 
ATOM      5  C   UNL     1     142.950  95.117 141.430  1.00  0.00     0.009 C 
ATOM      6  C   UNL     1     141.859  96.076 141.282  1.00  0.00    -0.034 C 
ATOM      7  C   UNL     1     141.146  96.525 142.518  1.00  0.00     0.046 C 
ATOM      8  C   UNL     1     141.549  96.505 140.044  1.00  0.00     0.096 C 
ATOM      9  N   UNL     1     142.265  96.032 138.941  1.00  0.00    -0.303 N 
ATOM     10  C   UNL     1     142.126  96.304 137.585  1.00  0.00     0.060 A 
ENDROOT
BRANCH   1  11
ATOM     11  C   UNL     1     143.532  95.624 135.579  1.00  0.00     0.002 A 
ATOM     12  C   UNL     1     144.206  95.560 132.845  1.00  0.00    -0.051 A 
ATOM     13  C   UNL     1     143.610  94.450 133.454  1.00  0.00     0.004 A 
ATOM     14  C   UNL     1     144.460  96.703 133.612  1.00  0.00     0.004 A 
ATOM     15  C   UNL     1     143.288  94.479 134.813  1.00  0.00     0.011 A 
ATOM     16  C   UNL     1     144.136  96.731 134.972  1.00  0.00     0.011 A 
ATOM     17  C   UNL     1     144.527  95.541 131.379  1.00  0.00     0.044 C 
ENDBRANCH   1  11
BRANCH  10  18
ATOM     18  C   UNL     1     141.034  97.159 137.020  1.00  0.00     0.157 C 
BRANCH  18  19
ATOM     19  C   UNL     1     140.545  96.632 135.671  1.00  0.00     0.228 C 
ATOM     20  O   UNL     1     140.066  95.495 135.611  1.00  0.00    -0.274 OA
ATOM     21  N   UNL     1     140.653  97.440 134.547  1.00  0.00    -0.348 N 
ATOM     22  C   UNL     1     141.169  98.800 134.540  1.00  0.00     0.146 C 
ATOM     23  C   UNL     1     140.326  96.881 133.245  1.00  0.00     0.146 C 
ENDBRANCH  18  19
ENDBRANCH  10  18
TORSDOF 3
ENDMDL
