MODEL 1
REMARK VINA RESULT:    -8.620      0.000      0.000
REMARK INTER + INTRA:         -11.110
REMARK INTER:                 -10.636
REMARK INTRA:                  -0.474
REMARK UNBOUND:                -0.474
REMARK SMILES CCN(C(C)=O)c1cccc(-c2ccnc3c(C#N)cnn23)c1
REMARK SMILES IDX 3 1 2 2 1 3 4 4 6 5 5 6 7 7 8 8 23 9 9 10 11 11 10 12 12 13
REMARK SMILES IDX 13 14 22 15 14 16 21 17 16 18 15 19 20 20 17 21 18 22 19 23
REMARK H PARENT
ROOT
ATOM      1  N   UNL     1     143.764  95.712 137.923  1.00  0.00    -0.313 N 
ENDROOT
BRANCH   1   2
ATOM      2  C   UNL     1     142.729  96.101 136.946  1.00  0.00     0.122 C 
ATOM      3  C   UNL     1     142.543  97.611 136.862  1.00  0.00     0.028 C 
ENDBRANCH   1   2
BRANCH   1   4
ATOM      4  C   UNL     1     145.078  95.428 137.497  1.00  0.00     0.223 C 
ATOM      5  O   UNL     1     146.108  95.728 138.105  1.00  0.00    -0.275 OA
ATOM      6  C   UNL     1     145.230  94.686 136.186  1.00  0.00     0.115 C 
ENDBRANCH   1   4
BRANCH   1   7
ATOM      7  C   UNL     1     143.365  95.557 139.312  1.00  0.00     0.044 A 
ATOM      8  C   UNL     1     142.726  94.398 139.774  1.00  0.00     0.026 A 
ATOM      9  C   UNL     1     143.633  96.553 140.273  1.00  0.00     0.036 A 
ATOM     10  C   UNL     1     142.339  94.250 141.111  1.00  0.00     0.003 A 
ATOM     11  C   UNL     1     143.257  96.421 141.625  1.00  0.00     0.002 A 
ATOM     12  C   UNL     1     142.597  95.259 142.031  1.00  0.00     0.010 A 
BRANCH  11  13
ATOM     13  C   UNL     1     143.557  97.496 142.597  1.00  0.00     0.076 C 
ATOM     14  C   UNL     1     142.598  97.876 143.464  1.00  0.00     0.049 C 
ATOM     15  N   UNL     1     144.820  98.120 142.662  1.00  0.00    -0.213 N 
ATOM     16  C   UNL     1     142.967  98.951 144.420  1.00  0.00     0.116 C 
ATOM     17  N   UNL     1     145.928  97.878 141.902  1.00  0.00    -0.173 NA
ATOM     18  C   UNL     1     145.069  99.133 143.606  1.00  0.00     0.173 A 
ATOM     19  N   UNL     1     144.116  99.546 144.498  1.00  0.00    -0.236 NA
ATOM     20  C   UNL     1     146.843  98.739 142.349  1.00  0.00     0.157 A 
ATOM     21  C   UNL     1     146.370  99.533 143.398  1.00  0.00     0.117 A 
ATOM     22  C   UNL     1     147.078 100.540 144.109  1.00  0.00     0.105 C 
ATOM     23  N   UNL     1     147.693 101.353 144.664  1.00  0.00    -0.192 NA
ENDBRANCH  11  13
ENDBRANCH   1   7
TORSDOF 4
ENDMDL
MODEL 2
REMARK VINA RESULT:    -8.461      2.029      6.904
REMARK INTER + INTRA:         -10.914
REMARK INTER:                 -10.289
REMARK INTRA:                  -0.625
REMARK UNBOUND:                -0.474
REMARK SMILES CCN(C(C)=O)c1cccc(-c2ccnc3c(C#N)cnn23)c1
REMARK SMILES IDX 3 1 2 2 1 3 4 4 6 5 5 6 7 7 8 8 23 9 9 10 11 11 10 12 12 13
REMARK SMILES IDX 13 14 22 15 14 16 21 17 16 18 15 19 20 20 17 21 18 22 19 23
REMARK H PARENT
ROOT
ATOM      1  N   UNL     1     144.874  97.977 143.446  1.00  0.00    -0.313 N 
ENDROOT
BRANCH   1   2
ATOM      2  C   UNL     1     144.262  98.523 144.672  1.00  0.00     0.122 C 
ATOM      3  C   UNL     1     143.299  99.669 144.383  1.00  0.00     0.028 C 
ENDBRANCH   1   2
BRANCH   1   4
ATOM      4  C   UNL     1     146.205  98.298 143.109  1.00  0.00     0.223 C 
ATOM      5  O   UNL     1     147.191  97.591 143.332  1.00  0.00    -0.275 OA
ATOM      6  C   UNL     1     146.438  99.619 142.408  1.00  0.00     0.115 C 
ENDBRANCH   1   4
BRANCH   1   7
ATOM      7  C   UNL     1     144.041  97.172 142.569  1.00  0.00     0.044 A 
ATOM      8  C   UNL     1     142.911  96.489 143.042  1.00  0.00     0.026 A 
ATOM      9  C   UNL     1     144.310  97.064 141.190  1.00  0.00     0.036 A 
ATOM     10  C   UNL     1     142.111  95.711 142.198  1.00  0.00     0.003 A 
ATOM     11  C   UNL     1     143.513  96.290 140.322  1.00  0.00     0.002 A 
ATOM     12  C   UNL     1     142.413  95.606 140.845  1.00  0.00     0.010 A 
BRANCH  11  13
ATOM     13  C   UNL     1     143.837  96.205 138.880  1.00  0.00     0.076 C 
ATOM     14  C   UNL     1     144.913  95.491 138.495  1.00  0.00     0.049 C 
ATOM     15  N   UNL     1     143.043  96.826 137.893  1.00  0.00    -0.213 N 
ATOM     16  C   UNL     1     145.175  95.435 137.035  1.00  0.00     0.116 C 
ATOM     17  N   UNL     1     141.911  97.571 138.058  1.00  0.00    -0.173 NA
ATOM     18  C   UNL     1     143.379  96.715 136.531  1.00  0.00     0.173 A 
ATOM     19  N   UNL     1     144.468  96.001 136.107  1.00  0.00    -0.236 NA
ATOM     20  C   UNL     1     141.561  97.936 136.824  1.00  0.00     0.157 A 
ATOM     21  C   UNL     1     142.427  97.435 135.847  1.00  0.00     0.117 A 
ATOM     22  C   UNL     1     142.345  97.620 134.440  1.00  0.00     0.105 C 
ATOM     23  N   UNL     1     142.239  97.796 133.297  1.00  0.00    -0.192 NA
ENDBRANCH  11  13
ENDBRANCH   1   7
TORSDOF 4
ENDMDL
MODEL 3
REMARK VINA RESULT:    -7.755      2.609      7.215
REMARK INTER + INTRA:         -10.043
REMARK INTER:                  -9.664
REMARK INTRA:                  -0.379
REMARK UNBOUND:                -0.474
REMARK SMILES CCN(C(C)=O)c1cccc(-c2ccnc3c(C#N)cnn23)c1
REMARK SMILES IDX 3 1 2 2 1 3 4 4 6 5 5 6 7 7 8 8 23 9 9 10 11 11 10 12 12 13
REMARK SMILES IDX 13 14 22 15 14 16 21 17 16 18 15 19 20 20 17 21 18 22 19 23
REMARK H PARENT
ROOT
ATOM      1  N   UNL     1     142.852  96.996 142.600  1.00  0.00    -0.313 N 
ENDROOT
BRANCH   1   2
ATOM      2  C   UNL     1     141.580  97.158 143.329  1.00  0.00     0.122 C 
ATOM      3  C   UNL     1     141.175  95.897 144.083  1.00  0.00     0.028 C 
ENDBRANCH   1   2
BRANCH   1   4
ATOM      4  C   UNL     1     143.997  97.721 142.990  1.00  0.00     0.223 C 
ATOM      5  O   UNL     1     145.117  97.615 142.487  1.00  0.00    -0.275 OA
ATOM      6  C   UNL     1     143.828  98.719 144.115  1.00  0.00     0.115 C 
ENDBRANCH   1   4
BRANCH   1   7
ATOM      7  C   UNL     1     142.862  96.132 141.431  1.00  0.00     0.044 A 
ATOM      8  C   UNL     1     142.829  94.735 141.542  1.00  0.00     0.026 A 
ATOM      9  C   UNL     1     142.871  96.659 140.123  1.00  0.00     0.036 A 
ATOM     10  C   UNL     1     142.841  93.903 140.416  1.00  0.00     0.003 A 
ATOM     11  C   UNL     1     142.878  95.839 138.977  1.00  0.00     0.002 A 
ATOM     12  C   UNL     1     142.872  94.451 139.140  1.00  0.00     0.010 A 
BRANCH  11  13
ATOM     13  C   UNL     1     142.891  96.439 137.624  1.00  0.00     0.076 C 
ATOM     14  C   UNL     1     143.943  96.200 136.816  1.00  0.00     0.049 C 
ATOM     15  N   UNL     1     141.829  97.233 137.143  1.00  0.00    -0.213 N 
ATOM     16  C   UNL     1     143.888  96.820 135.468  1.00  0.00     0.116 C 
ATOM     17  N   UNL     1     140.672  97.580 137.779  1.00  0.00    -0.173 NA
ATOM     18  C   UNL     1     141.875  97.779 135.847  1.00  0.00     0.173 A 
ATOM     19  N   UNL     1     142.930  97.559 135.002  1.00  0.00    -0.236 NA
ATOM     20  C   UNL     1     140.019  98.346 136.904  1.00  0.00     0.157 A 
ATOM     21  C   UNL     1     140.711  98.499 135.699  1.00  0.00     0.117 A 
ATOM     22  C   UNL     1     140.304  99.237 134.554  1.00  0.00     0.105 C 
ATOM     23  N   UNL     1     139.933  99.850 133.641  1.00  0.00    -0.192 NA
ENDBRANCH  11  13
ENDBRANCH   1   7
TORSDOF 4
ENDMDL
MODEL 4
REMARK VINA RESULT:    -7.717      2.716      7.134
REMARK INTER + INTRA:          -9.995
REMARK INTER:                  -9.619
REMARK INTRA:                  -0.376
REMARK UNBOUND:                -0.474
REMARK SMILES CCN(C(C)=O)c1cccc(-c2ccnc3c(C#N)cnn23)c1
REMARK SMILES IDX 3 1 2 2 1 3 4 4 6 5 5 6 7 7 8 8 23 9 9 10 11 11 10 12 12 13
REMARK SMILES IDX 13 14 22 15 14 16 21 17 16 18 15 19 20 20 17 21 18 22 19 23
REMARK H PARENT
ROOT
ATOM      1  N   UNL     1     142.703  96.906 142.541  1.00  0.00    -0.313 N 
ENDROOT
BRANCH   1   2
ATOM      2  C   UNL     1     141.474  96.899 143.356  1.00  0.00     0.122 C 
ATOM      3  C   UNL     1     141.105  95.502 143.844  1.00  0.00     0.028 C 
ENDBRANCH   1   2
BRANCH   1   4
ATOM      4  C   UNL     1     143.834  97.635 142.961  1.00  0.00     0.223 C 
ATOM      5  O   UNL     1     144.970  97.526 142.494  1.00  0.00    -0.275 OA
ATOM      6  C   UNL     1     143.630  98.642 144.073  1.00  0.00     0.115 C 
ENDBRANCH   1   4
BRANCH   1   7
ATOM      7  C   UNL     1     142.679  96.208 141.266  1.00  0.00     0.044 A 
ATOM      8  C   UNL     1     142.964  94.838 141.166  1.00  0.00     0.026 A 
ATOM      9  C   UNL     1     142.335  96.867 140.069  1.00  0.00     0.036 A 
ATOM     10  C   UNL     1     142.944  94.167 139.939  1.00  0.00     0.003 A 
ATOM     11  C   UNL     1     142.304  96.209 138.824  1.00  0.00     0.002 A 
ATOM     12  C   UNL     1     142.622  94.849 138.771  1.00  0.00     0.010 A 
BRANCH  11  13
ATOM     13  C   UNL     1     141.939  96.945 137.593  1.00  0.00     0.076 C 
ATOM     14  C   UNL     1     140.778  97.629 137.562  1.00  0.00     0.049 C 
ATOM     15  N   UNL     1     142.777  96.974 136.458  1.00  0.00    -0.213 N 
ATOM     16  C   UNL     1     140.478  98.354 136.302  1.00  0.00     0.116 C 
ATOM     17  N   UNL     1     143.992  96.376 136.283  1.00  0.00    -0.173 NA
ATOM     18  C   UNL     1     142.399  97.692 135.309  1.00  0.00     0.173 A 
ATOM     19  N   UNL     1     141.225  98.393 135.243  1.00  0.00    -0.236 NA
ATOM     20  C   UNL     1     144.354  96.697 135.041  1.00  0.00     0.157 A 
ATOM     21  C   UNL     1     143.413  97.507 134.397  1.00  0.00     0.117 A 
ATOM     22  C   UNL     1     143.484  98.036 133.080  1.00  0.00     0.105 C 
ATOM     23  N   UNL     1     143.583  98.450 132.000  1.00  0.00    -0.192 NA
ENDBRANCH  11  13
ENDBRANCH   1   7
TORSDOF 4
ENDMDL
MODEL 5
REMARK VINA RESULT:    -7.596      1.751      1.997
REMARK INTER + INTRA:          -9.847
REMARK INTER:                  -9.135
REMARK INTRA:                  -0.712
REMARK UNBOUND:                -0.474
REMARK SMILES CCN(C(C)=O)c1cccc(-c2ccnc3c(C#N)cnn23)c1
REMARK SMILES IDX 3 1 2 2 1 3 4 4 6 5 5 6 7 7 8 8 23 9 9 10 11 11 10 12 12 13
REMARK SMILES IDX 13 14 22 15 14 16 21 17 16 18 15 19 20 20 17 21 18 22 19 23
REMARK H PARENT
ROOT
ATOM      1  N   UNL     1     141.910  96.952 137.441  1.00  0.00    -0.313 N 
ENDROOT
BRANCH   1   2
ATOM      2  C   UNL     1     141.100  98.164 137.666  1.00  0.00     0.122 C 
ATOM      3  C   UNL     1     139.686  97.842 138.135  1.00  0.00     0.028 C 
ENDBRANCH   1   2
BRANCH   1   4
ATOM      4  C   UNL     1     142.201  96.521 136.130  1.00  0.00     0.223 C 
ATOM      5  O   UNL     1     141.412  95.952 135.372  1.00  0.00    -0.275 OA
ATOM      6  C   UNL     1     143.598  96.790 135.612  1.00  0.00     0.115 C 
ENDBRANCH   1   4
BRANCH   1   7
ATOM      7  C   UNL     1     142.324  96.184 138.603  1.00  0.00     0.044 A 
ATOM      8  C   UNL     1     142.366  94.782 138.588  1.00  0.00     0.026 A 
ATOM      9  C   UNL     1     142.739  96.812 139.795  1.00  0.00     0.036 A 
ATOM     10  C   UNL     1     142.761  94.042 139.708  1.00  0.00     0.003 A 
ATOM     11  C   UNL     1     143.147  96.086 140.931  1.00  0.00     0.002 A 
ATOM     12  C   UNL     1     143.144  94.690 140.877  1.00  0.00     0.010 A 
BRANCH  11  13
ATOM     13  C   UNL     1     143.571  96.791 142.162  1.00  0.00     0.076 C 
ATOM     14  C   UNL     1     142.875  96.592 143.299  1.00  0.00     0.049 C 
ATOM     15  N   UNL     1     144.692  97.646 142.190  1.00  0.00    -0.213 N 
ATOM     16  C   UNL     1     143.359  97.318 144.499  1.00  0.00     0.116 C 
ATOM     17  N   UNL     1     145.540  97.969 141.171  1.00  0.00    -0.173 NA
ATOM     18  C   UNL     1     145.068  98.291 143.383  1.00  0.00     0.173 A 
ATOM     19  N   UNL     1     144.381  98.115 144.554  1.00  0.00    -0.236 NA
ATOM     20  C   UNL     1     146.415  98.817 141.712  1.00  0.00     0.157 A 
ATOM     21  C   UNL     1     146.174  99.049 143.070  1.00  0.00     0.117 A 
ATOM     22  C   UNL     1     146.913  99.885 143.950  1.00  0.00     0.105 C 
ATOM     23  N   UNL     1     147.545 100.577 144.635  1.00  0.00    -0.192 NA
ENDBRANCH  11  13
ENDBRANCH   1   7
TORSDOF 4
ENDMDL
MODEL 6
REMARK VINA RESULT:    -7.433      3.339      8.069
REMARK INTER + INTRA:          -9.645
REMARK INTER:                  -9.160
REMARK INTRA:                  -0.485
REMARK UNBOUND:                -0.474
REMARK SMILES CCN(C(C)=O)c1cccc(-c2ccnc3c(C#N)cnn23)c1
REMARK SMILES IDX 3 1 2 2 1 3 4 4 6 5 5 6 7 7 8 8 23 9 9 10 11 11 10 12 12 13
REMARK SMILES IDX 13 14 22 15 14 16 21 17 16 18 15 19 20 20 17 21 18 22 19 23
REMARK H PARENT
ROOT
ATOM      1  N   UNL     1     142.369  96.284 141.552  1.00  0.00    -0.313 N 
ENDROOT
BRANCH   1   2
ATOM      2  C   UNL     1     141.000  95.753 141.688  1.00  0.00     0.122 C 
ATOM      3  C   UNL     1     140.908  94.636 142.721  1.00  0.00     0.028 C 
ENDBRANCH   1   2
BRANCH   1   4
ATOM      4  C   UNL     1     143.035  96.836 142.666  1.00  0.00     0.223 C 
ATOM      5  O   UNL     1     144.141  96.487 143.083  1.00  0.00    -0.275 OA
ATOM      6  C   UNL     1     142.331  97.955 143.403  1.00  0.00     0.115 C 
ENDBRANCH   1   4
BRANCH   1   7
ATOM      7  C   UNL     1     142.969  96.292 140.228  1.00  0.00     0.044 A 
ATOM      8  C   UNL     1     144.351  96.435 140.042  1.00  0.00     0.026 A 
ATOM      9  C   UNL     1     142.193  96.121 139.064  1.00  0.00     0.036 A 
ATOM     10  C   UNL     1     144.929  96.446 138.767  1.00  0.00     0.003 A 
ATOM     11  C   UNL     1     142.755  96.122 137.772  1.00  0.00     0.002 A 
ATOM     12  C   UNL     1     144.134  96.296 137.636  1.00  0.00     0.010 A 
BRANCH  11  13
ATOM     13  C   UNL     1     141.898  95.942 136.579  1.00  0.00     0.076 C 
ATOM     14  C   UNL     1     141.725  94.702 136.081  1.00  0.00     0.049 C 
ATOM     15  N   UNL     1     141.237  97.023 135.958  1.00  0.00    -0.213 N 
ATOM     16  C   UNL     1     140.845  94.589 134.891  1.00  0.00     0.116 C 
ATOM     17  N   UNL     1     141.254  98.343 136.306  1.00  0.00    -0.173 NA
ATOM     18  C   UNL     1     140.423  96.810 134.830  1.00  0.00     0.173 A 
ATOM     19  N   UNL     1     140.231  95.563 134.296  1.00  0.00    -0.236 NA
ATOM     20  C   UNL     1     140.485  98.944 135.398  1.00  0.00     0.157 A 
ATOM     21  C   UNL     1     139.946  98.049 134.469  1.00  0.00     0.117 A 
ATOM     22  C   UNL     1     139.083  98.348 133.380  1.00  0.00     0.105 C 
ATOM     23  N   UNL     1     138.377  98.635 132.504  1.00  0.00    -0.192 NA
ENDBRANCH  11  13
ENDBRANCH   1   7
TORSDOF 4
ENDMDL
MODEL 7
REMARK VINA RESULT:    -6.992      3.787      8.261
REMARK INTER + INTRA:          -9.100
REMARK INTER:                  -8.495
REMARK INTRA:                  -0.606
REMARK UNBOUND:                -0.474
REMARK SMILES CCN(C(C)=O)c1cccc(-c2ccnc3c(C#N)cnn23)c1
REMARK SMILES IDX 3 1 2 2 1 3 4 4 6 5 5 6 7 7 8 8 23 9 9 10 11 11 10 12 12 13
REMARK SMILES IDX 13 14 22 15 14 16 21 17 16 18 15 19 20 20 17 21 18 22 19 23
REMARK H PARENT
ROOT
ATOM      1  N   UNL     1     142.188  95.560 141.517  1.00  0.00    -0.313 N 
ENDROOT
BRANCH   1   2
ATOM      2  C   UNL     1     141.540  94.236 141.581  1.00  0.00     0.122 C 
ATOM      3  C   UNL     1     142.295  93.179 140.783  1.00  0.00     0.028 C 
ENDBRANCH   1   2
BRANCH   1   4
ATOM      4  C   UNL     1     142.184  96.412 142.641  1.00  0.00     0.223 C 
ATOM      5  O   UNL     1     142.905  97.400 142.792  1.00  0.00    -0.275 OA
ATOM      6  C   UNL     1     141.206  96.085 143.748  1.00  0.00     0.115 C 
ENDBRANCH   1   4
BRANCH   1   7
ATOM      7  C   UNL     1     142.752  95.982 140.245  1.00  0.00     0.044 A 
ATOM      8  C   UNL     1     144.136  96.040 140.032  1.00  0.00     0.026 A 
ATOM      9  C   UNL     1     141.932  96.323 139.150  1.00  0.00     0.036 A 
ATOM     10  C   UNL     1     144.680  96.449 138.809  1.00  0.00     0.003 A 
ATOM     11  C   UNL     1     142.459  96.732 137.909  1.00  0.00     0.002 A 
ATOM     12  C   UNL     1     143.846  96.800 137.754  1.00  0.00     0.010 A 
BRANCH  11  13
ATOM     13  C   UNL     1     141.558  97.083 136.788  1.00  0.00     0.076 C 
ATOM     14  C   UNL     1     141.038  98.325 136.735  1.00  0.00     0.049 C 
ATOM     15  N   UNL     1     141.243  96.168 135.762  1.00  0.00    -0.213 N 
ATOM     16  C   UNL     1     140.152  98.617 135.580  1.00  0.00     0.116 C 
ATOM     17  N   UNL     1     141.670  94.881 135.610  1.00  0.00    -0.173 NA
ATOM     18  C   UNL     1     140.388  96.543 134.709  1.00  0.00     0.173 A 
ATOM     19  N   UNL     1     139.840  97.795 134.627  1.00  0.00    -0.236 NA
ATOM     20  C   UNL     1     141.076  94.454 134.496  1.00  0.00     0.157 A 
ATOM     21  C   UNL     1     140.279  95.435 133.899  1.00  0.00     0.117 A 
ATOM     22  C   UNL     1     139.516  95.323 132.705  1.00  0.00     0.105 C 
ATOM     23  N   UNL     1     138.909  95.189 131.724  1.00  0.00    -0.192 NA
ENDBRANCH  11  13
ENDBRANCH   1   7
TORSDOF 4
ENDMDL
MODEL 8
REMARK VINA RESULT:    -6.909      2.130      3.461
REMARK INTER + INTRA:          -8.998
REMARK INTER:                  -8.287
REMARK INTRA:                  -0.711
REMARK UNBOUND:                -0.474
REMARK SMILES CCN(C(C)=O)c1cccc(-c2ccnc3c(C#N)cnn23)c1
REMARK SMILES IDX 3 1 2 2 1 3 4 4 6 5 5 6 7 7 8 8 23 9 9 10 11 11 10 12 12 13
REMARK SMILES IDX 13 14 22 15 14 16 21 17 16 18 15 19 20 20 17 21 18 22 19 23
REMARK H PARENT
ROOT
ATOM      1  N   UNL     1     142.800  97.273 135.393  1.00  0.00    -0.313 N 
ENDROOT
BRANCH   1   2
ATOM      2  C   UNL     1     143.550  97.694 134.196  1.00  0.00     0.122 C 
ATOM      3  C   UNL     1     144.229  99.047 134.379  1.00  0.00     0.028 C 
ENDBRANCH   1   2
BRANCH   1   4
ATOM      4  C   UNL     1     141.442  97.621 135.544  1.00  0.00     0.223 C 
ATOM      5  O   UNL     1     140.985  98.765 135.479  1.00  0.00    -0.275 OA
ATOM      6  C   UNL     1     140.466  96.492 135.799  1.00  0.00     0.115 C 
ENDBRANCH   1   4
BRANCH   1   7
ATOM      7  C   UNL     1     143.522  96.562 136.435  1.00  0.00     0.044 A 
ATOM      8  C   UNL     1     144.514  95.618 136.137  1.00  0.00     0.026 A 
ATOM      9  C   UNL     1     143.284  96.813 137.802  1.00  0.00     0.036 A 
ATOM     10  C   UNL     1     145.208  94.931 137.140  1.00  0.00     0.003 A 
ATOM     11  C   UNL     1     143.975  96.138 138.827  1.00  0.00     0.002 A 
ATOM     12  C   UNL     1     144.936  95.185 138.479  1.00  0.00     0.010 A 
BRANCH  11  13
ATOM     13  C   UNL     1     143.688  96.433 140.249  1.00  0.00     0.076 C 
ATOM     14  C   UNL     1     142.598  95.885 140.821  1.00  0.00     0.049 C 
ATOM     15  N   UNL     1     144.530  97.251 141.032  1.00  0.00    -0.213 N 
ATOM     16  C   UNL     1     142.374  96.212 142.252  1.00  0.00     0.116 C 
ATOM     17  N   UNL     1     145.683  97.882 140.664  1.00  0.00    -0.173 NA
ATOM     18  C   UNL     1     144.227  97.501 142.383  1.00  0.00     0.173 A 
ATOM     19  N   UNL     1     143.126  96.964 142.994  1.00  0.00    -0.236 NA
ATOM     20  C   UNL     1     146.079  98.532 141.759  1.00  0.00     0.157 A 
ATOM     21  C   UNL     1     145.223  98.331 142.846  1.00  0.00     0.117 A 
ATOM     22  C   UNL     1     145.350  98.863 144.157  1.00  0.00     0.105 C 
ATOM     23  N   UNL     1     145.493  99.318 145.216  1.00  0.00    -0.192 NA
ENDBRANCH  11  13
ENDBRANCH   1   7
TORSDOF 4
ENDMDL
MODEL 9
REMARK VINA RESULT:    -6.846      4.700      7.480
REMARK INTER + INTRA:          -8.920
REMARK INTER:                  -8.230
REMARK INTRA:                  -0.690
REMARK UNBOUND:                -0.474
REMARK SMILES CCN(C(C)=O)c1cccc(-c2ccnc3c(C#N)cnn23)c1
REMARK SMILES IDX 3 1 2 2 1 3 4 4 6 5 5 6 7 7 8 8 23 9 9 10 11 11 10 12 12 13
REMARK SMILES IDX 13 14 22 15 14 16 21 17 16 18 15 19 20 20 17 21 18 22 19 23
REMARK H PARENT
ROOT
ATOM      1  N   UNL     1     141.183  97.255 131.337  1.00  0.00    -0.313 N 
ENDROOT
BRANCH   1   2
ATOM      2  C   UNL     1     141.692  96.103 130.570  1.00  0.00     0.122 C 
ATOM      3  C   UNL     1     141.466  94.778 131.288  1.00  0.00     0.028 C 
ENDBRANCH   1   2
BRANCH   1   4
ATOM      4  C   UNL     1     140.043  97.959 130.897  1.00  0.00     0.223 C 
ATOM      5  O   UNL     1     140.055  99.016 130.262  1.00  0.00    -0.275 OA
ATOM      6  C   UNL     1     138.693  97.358 131.228  1.00  0.00     0.115 C 
ENDBRANCH   1   4
BRANCH   1   7
ATOM      7  C   UNL     1     141.936  97.683 132.505  1.00  0.00     0.044 A 
ATOM      8  C   UNL     1     143.168  98.342 132.391  1.00  0.00     0.026 A 
ATOM      9  C   UNL     1     141.447  97.485 133.812  1.00  0.00     0.036 A 
ATOM     10  C   UNL     1     143.895  98.750 133.515  1.00  0.00     0.003 A 
ATOM     11  C   UNL     1     142.160  97.894 134.957  1.00  0.00     0.002 A 
ATOM     12  C   UNL     1     143.398  98.522 134.792  1.00  0.00     0.010 A 
BRANCH  11  13
ATOM     13  C   UNL     1     141.608  97.662 136.310  1.00  0.00     0.076 C 
ATOM     14  C   UNL     1     140.432  98.231 136.640  1.00  0.00     0.049 C 
ATOM     15  N   UNL     1     142.259  96.846 137.258  1.00  0.00    -0.213 N 
ATOM     16  C   UNL     1     139.928  97.949 138.008  1.00  0.00     0.116 C 
ATOM     17  N   UNL     1     143.434  96.163 137.128  1.00  0.00    -0.173 NA
ATOM     18  C   UNL     1     141.698  96.642 138.532  1.00  0.00     0.173 A 
ATOM     19  N   UNL     1     140.507  97.209 138.901  1.00  0.00    -0.236 NA
ATOM     20  C   UNL     1     143.613  95.565 138.305  1.00  0.00     0.157 A 
ATOM     21  C   UNL     1     142.574  95.822 139.205  1.00  0.00     0.117 A 
ATOM     22  C   UNL     1     142.442  95.339 140.535  1.00  0.00     0.105 C 
ATOM     23  N   UNL     1     142.372  94.921 141.616  1.00  0.00    -0.192 NA
ENDBRANCH  11  13
ENDBRANCH   1   7
TORSDOF 4
ENDMDL
