MODEL 1
REMARK VINA RESULT:    -8.100      0.000      0.000
REMARK INTER + INTRA:         -10.040
REMARK INTER:                  -9.521
REMARK INTRA:                  -0.519
REMARK UNBOUND:                -0.519
REMARK SMILES CN1CCN(C(=O)OC2c3nccnc3C(=O)N2c2ccc(Cl)cn2)CC1
REMARK SMILES IDX 9 1 10 2 11 3 12 4 13 5 14 6 15 7 16 8 17 9 18 10 8 11 6 12
REMARK SMILES IDX 2 13 3 14 27 15 4 16 26 17 5 18 7 19 1 20 19 21 20 22 25 23
REMARK SMILES IDX 21 24 24 25 22 26 23 27
REMARK H PARENT
ROOT
ATOM      1  C   UNL     1     144.201  96.576 141.507  1.00  0.00     0.338 C 
ATOM      2  C   UNL     1     142.938  95.852 141.906  1.00  0.00     0.134 A 
ATOM      3  N   UNL     1     142.335  94.821 141.270  1.00  0.00    -0.251 NA
ATOM      4  C   UNL     1     141.195  94.397 141.874  1.00  0.00     0.131 A 
ATOM      5  C   UNL     1     140.693  94.975 143.041  1.00  0.00     0.132 A 
ATOM      6  N   UNL     1     141.299  96.011 143.672  1.00  0.00    -0.247 NA
ATOM      7  C   UNL     1     142.427  96.415 143.054  1.00  0.00     0.156 A 
ATOM      8  C   UNL     1     143.316  97.501 143.493  1.00  0.00     0.283 C 
ATOM      9  O   UNL     1     143.123  98.174 144.489  1.00  0.00    -0.267 OA
ATOM     10  N   UNL     1     144.363  97.551 142.581  1.00  0.00    -0.248 N 
ENDROOT
BRANCH   1  11
ATOM     11  O   UNL     1     143.963  97.271 140.287  1.00  0.00    -0.419 OA
BRANCH  11  12
ATOM     12  C   UNL     1     144.534  96.695 139.201  1.00  0.00     0.412 C 
ATOM     13  N   UNL     1     141.914  96.733 135.739  1.00  0.00    -0.303 NA
ATOM     14  C   UNL     1     141.404  96.448 137.095  1.00  0.00     0.106 C 
ATOM     15  C   UNL     1     143.391  96.736 135.675  1.00  0.00     0.106 C 
ATOM     16  C   UNL     1     142.268  97.062 138.210  1.00  0.00     0.138 C 
ATOM     17  C   UNL     1     144.105  96.064 136.863  1.00  0.00     0.138 C 
ATOM     18  N   UNL     1     143.655  96.602 138.142  1.00  0.00    -0.306 N 
ATOM     19  O   UNL     1     145.694  96.305 139.157  1.00  0.00    -0.224 OA
ATOM     20  C   UNL     1     141.328  95.818 134.763  1.00  0.00     0.105 C 
ENDBRANCH  11  12
ENDBRANCH   1  11
BRANCH  10  21
ATOM     21  C   UNL     1     145.500  98.375 142.619  1.00  0.00     0.138 A 
ATOM     22  C   UNL     1     145.574  99.506 143.428  1.00  0.00     0.049 A 
ATOM     23  N   UNL     1     146.540  98.009 141.831  1.00  0.00    -0.237 NA
ATOM     24  C   UNL     1     146.736 100.284 143.425  1.00  0.00     0.026 A 
ATOM     25  C   UNL     1     147.657  98.779 141.842  1.00  0.00     0.134 A 
ATOM     26  C   UNL     1     147.799  99.915 142.617  1.00  0.00     0.059 A 
ATOM     27  Cl  UNL     1     149.241 100.840 142.580  1.00  0.00    -0.083 Cl
ENDBRANCH  10  21
TORSDOF 3
ENDMDL
MODEL 2
REMARK VINA RESULT:    -7.706      4.066      6.319
REMARK INTER + INTRA:          -9.577
REMARK INTER:                  -8.626
REMARK INTRA:                  -0.952
REMARK UNBOUND:                -0.519
REMARK SMILES CN1CCN(C(=O)OC2c3nccnc3C(=O)N2c2ccc(Cl)cn2)CC1
REMARK SMILES IDX 9 1 10 2 11 3 12 4 13 5 14 6 15 7 16 8 17 9 18 10 8 11 6 12
REMARK SMILES IDX 2 13 3 14 27 15 4 16 26 17 5 18 7 19 1 20 19 21 20 22 25 23
REMARK SMILES IDX 21 24 24 25 22 26 23 27
REMARK H PARENT
ROOT
ATOM      1  C   UNL     1     142.091  96.147 137.930  1.00  0.00     0.338 C 
ATOM      2  C   UNL     1     142.190  96.116 139.436  1.00  0.00     0.134 A 
ATOM      3  N   UNL     1     141.250  96.480 140.338  1.00  0.00    -0.251 NA
ATOM      4  C   UNL     1     141.651  96.350 141.629  1.00  0.00     0.131 A 
ATOM      5  C   UNL     1     142.918  95.886 141.988  1.00  0.00     0.132 A 
ATOM      6  N   UNL     1     143.858  95.526 141.080  1.00  0.00    -0.247 NA
ATOM      7  C   UNL     1     143.438  95.664 139.806  1.00  0.00     0.156 A 
ATOM      8  C   UNL     1     144.212  95.348 138.597  1.00  0.00     0.283 C 
ATOM      9  O   UNL     1     145.350  94.916 138.616  1.00  0.00    -0.267 OA
ATOM     10  N   UNL     1     143.385  95.615 137.514  1.00  0.00    -0.248 N 
ENDROOT
BRANCH   1  11
ATOM     11  O   UNL     1     141.996  97.504 137.508  1.00  0.00    -0.419 OA
BRANCH  11  12
ATOM     12  C   UNL     1     140.794  97.835 136.975  1.00  0.00     0.412 C 
ATOM     13  N   UNL     1     141.038  98.640 132.715  1.00  0.00    -0.303 NA
ATOM     14  C   UNL     1     142.081  99.101 133.653  1.00  0.00     0.106 C 
ATOM     15  C   UNL     1     139.833  98.134 133.408  1.00  0.00     0.106 C 
ATOM     16  C   UNL     1     142.172  98.246 134.929  1.00  0.00     0.138 C 
ATOM     17  C   UNL     1     139.702  98.540 134.888  1.00  0.00     0.138 C 
ATOM     18  N   UNL     1     140.900  98.206 135.651  1.00  0.00    -0.306 N 
ATOM     19  O   UNL     1     139.736  97.807 137.591  1.00  0.00    -0.224 OA
ATOM     20  C   UNL     1     140.712  99.685 131.748  1.00  0.00     0.105 C 
ENDBRANCH  11  12
ENDBRANCH   1  11
BRANCH  10  21
ATOM     21  C   UNL     1     143.652  95.397 136.152  1.00  0.00     0.138 A 
ATOM     22  C   UNL     1     142.806  94.649 135.336  1.00  0.00     0.049 A 
ATOM     23  N   UNL     1     144.779  95.963 135.658  1.00  0.00    -0.237 NA
ATOM     24  C   UNL     1     143.124  94.472 133.986  1.00  0.00     0.026 A 
ATOM     25  C   UNL     1     145.070  95.777 134.345  1.00  0.00     0.134 A 
ATOM     26  C   UNL     1     144.279  95.046 133.479  1.00  0.00     0.059 A 
ATOM     27  Cl  UNL     1     144.709  94.853 131.832  1.00  0.00    -0.083 Cl
ENDBRANCH  10  21
TORSDOF 3
ENDMDL
MODEL 3
REMARK VINA RESULT:    -7.447      4.487      6.802
REMARK INTER + INTRA:          -9.272
REMARK INTER:                  -8.304
REMARK INTRA:                  -0.969
REMARK UNBOUND:                -0.519
REMARK SMILES CN1CCN(C(=O)OC2c3nccnc3C(=O)N2c2ccc(Cl)cn2)CC1
REMARK SMILES IDX 9 1 10 2 11 3 12 4 13 5 14 6 15 7 16 8 17 9 18 10 8 11 6 12
REMARK SMILES IDX 2 13 3 14 27 15 4 16 26 17 5 18 7 19 1 20 19 21 20 22 25 23
REMARK SMILES IDX 21 24 24 25 22 26 23 27
REMARK H PARENT
ROOT
ATOM      1  C   UNL     1     142.939  96.730 136.968  1.00  0.00     0.338 C 
ATOM      2  C   UNL     1     142.862  96.350 138.426  1.00  0.00     0.134 A 
ATOM      3  N   UNL     1     143.813  95.751 139.180  1.00  0.00    -0.251 NA
ATOM      4  C   UNL     1     143.433  95.524 140.463  1.00  0.00     0.131 A 
ATOM      5  C   UNL     1     142.174  95.875 140.956  1.00  0.00     0.132 A 
ATOM      6  N   UNL     1     141.224  96.472 140.195  1.00  0.00    -0.247 NA
ATOM      7  C   UNL     1     141.623  96.686 138.925  1.00  0.00     0.156 A 
ATOM      8  C   UNL     1     140.834  97.322 137.861  1.00  0.00     0.283 C 
ATOM      9  O   UNL     1     139.699  97.735 138.015  1.00  0.00    -0.267 OA
ATOM     10  N   UNL     1     141.643  97.359 136.733  1.00  0.00    -0.248 N 
ENDROOT
BRANCH   1  11
ATOM     11  O   UNL     1     143.019  95.540 136.189  1.00  0.00    -0.419 OA
BRANCH  11  12
ATOM     12  C   UNL     1     144.164  95.422 135.473  1.00  0.00     0.412 C 
ATOM     13  N   UNL     1     143.424  95.151 131.203  1.00  0.00    -0.303 NA
ATOM     14  C   UNL     1     142.569  94.455 132.185  1.00  0.00     0.106 C 
ATOM     15  C   UNL     1     144.656  95.700 131.810  1.00  0.00     0.106 C 
ATOM     16  C   UNL     1     142.568  95.122 133.571  1.00  0.00     0.138 C 
ATOM     17  C   UNL     1     145.026  95.125 133.190  1.00  0.00     0.138 C 
ATOM     18  N   UNL     1     143.916  95.216 134.132  1.00  0.00    -0.306 N 
ATOM     19  O   UNL     1     145.288  95.494 135.954  1.00  0.00    -0.224 OA
ATOM     20  C   UNL     1     143.717  94.284 130.065  1.00  0.00     0.105 C 
ENDBRANCH  11  12
ENDBRANCH   1  11
BRANCH  10  21
ATOM     21  C   UNL     1     141.357  97.941 135.487  1.00  0.00     0.138 A 
ATOM     22  C   UNL     1     140.091  97.882 134.909  1.00  0.00     0.049 A 
ATOM     23  N   UNL     1     142.379  98.578 134.867  1.00  0.00    -0.237 NA
ATOM     24  C   UNL     1     139.868  98.484 133.667  1.00  0.00     0.026 A 
ATOM     25  C   UNL     1     142.141  99.155 133.662  1.00  0.00     0.134 A 
ATOM     26  C   UNL     1     140.912  99.134 133.030  1.00  0.00     0.059 A 
ATOM     27  Cl  UNL     1     140.685  99.884 131.506  1.00  0.00    -0.083 Cl
ENDBRANCH  10  21
TORSDOF 3
ENDMDL
MODEL 4
REMARK VINA RESULT:    -7.180      4.073      7.295
REMARK INTER + INTRA:          -8.959
REMARK INTER:                  -8.102
REMARK INTRA:                  -0.857
REMARK UNBOUND:                -0.519
REMARK SMILES CN1CCN(C(=O)OC2c3nccnc3C(=O)N2c2ccc(Cl)cn2)CC1
REMARK SMILES IDX 9 1 10 2 11 3 12 4 13 5 14 6 15 7 16 8 17 9 18 10 8 11 6 12
REMARK SMILES IDX 2 13 3 14 27 15 4 16 26 17 5 18 7 19 1 20 19 21 20 22 25 23
REMARK SMILES IDX 21 24 24 25 22 26 23 27
REMARK H PARENT
ROOT
ATOM      1  C   UNL     1     143.518  96.864 135.563  1.00  0.00     0.338 C 
ATOM      2  C   UNL     1     144.253  96.604 134.271  1.00  0.00     0.134 A 
ATOM      3  N   UNL     1     144.129  97.265 133.097  1.00  0.00    -0.251 NA
ATOM      4  C   UNL     1     144.921  96.778 132.108  1.00  0.00     0.131 A 
ATOM      5  C   UNL     1     145.781  95.692 132.288  1.00  0.00     0.132 A 
ATOM      6  N   UNL     1     145.899  95.031 133.466  1.00  0.00    -0.247 NA
ATOM      7  C   UNL     1     145.103  95.532 134.432  1.00  0.00     0.156 A 
ATOM      8  C   UNL     1     145.007  95.047 135.816  1.00  0.00     0.283 C 
ATOM      9  O   UNL     1     145.654  94.113 136.253  1.00  0.00    -0.267 OA
ATOM     10  N   UNL     1     144.091  95.867 136.462  1.00  0.00    -0.248 N 
ENDROOT
BRANCH   1  11
ATOM     11  O   UNL     1     142.138  96.569 135.371  1.00  0.00    -0.419 OA
BRANCH  11  12
ATOM     12  C   UNL     1     141.360  97.663 135.177  1.00  0.00     0.412 C 
ATOM     13  N   UNL     1     138.921  97.344 131.599  1.00  0.00    -0.303 NA
ATOM     14  C   UNL     1     140.324  96.882 131.626  1.00  0.00     0.106 C 
ATOM     15  C   UNL     1     138.558  98.131 132.797  1.00  0.00     0.106 C 
ATOM     16  C   UNL     1     140.810  96.497 133.034  1.00  0.00     0.138 C 
ATOM     17  C   UNL     1     139.744  98.667 133.620  1.00  0.00     0.138 C 
ATOM     18  N   UNL     1     140.680  97.607 133.979  1.00  0.00    -0.306 N 
ATOM     19  O   UNL     1     141.265  98.591 135.970  1.00  0.00    -0.224 OA
ATOM     20  C   UNL     1     138.639  98.069 130.363  1.00  0.00     0.105 C 
ENDBRANCH  11  12
ENDBRANCH   1  11
BRANCH  10  21
ATOM     21  C   UNL     1     143.722  95.846 137.818  1.00  0.00     0.138 A 
ATOM     22  C   UNL     1     142.688  95.045 138.296  1.00  0.00     0.049 A 
ATOM     23  N   UNL     1     144.432  96.642 138.652  1.00  0.00    -0.237 NA
ATOM     24  C   UNL     1     142.370  95.064 139.658  1.00  0.00     0.026 A 
ATOM     25  C   UNL     1     144.107  96.647 139.969  1.00  0.00     0.134 A 
ATOM     26  C   UNL     1     143.093  95.881 140.512  1.00  0.00     0.059 A 
ATOM     27  Cl  UNL     1     142.737  95.938 142.188  1.00  0.00    -0.083 Cl
ENDBRANCH  10  21
TORSDOF 3
ENDMDL
MODEL 5
REMARK VINA RESULT:    -7.024      6.156      8.471
REMARK INTER + INTRA:          -8.775
REMARK INTER:                  -7.891
REMARK INTRA:                  -0.884
REMARK UNBOUND:                -0.519
REMARK SMILES CN1CCN(C(=O)OC2c3nccnc3C(=O)N2c2ccc(Cl)cn2)CC1
REMARK SMILES IDX 9 1 10 2 11 3 12 4 13 5 14 6 15 7 16 8 17 9 18 10 8 11 6 12
REMARK SMILES IDX 2 13 3 14 27 15 4 16 26 17 5 18 7 19 1 20 19 21 20 22 25 23
REMARK SMILES IDX 21 24 24 25 22 26 23 27
REMARK H PARENT
ROOT
ATOM      1  C   UNL     1     143.175  96.535 133.929  1.00  0.00     0.338 C 
ATOM      2  C   UNL     1     144.211  95.769 134.714  1.00  0.00     0.134 A 
ATOM      3  N   UNL     1     145.079  94.836 134.257  1.00  0.00    -0.251 NA
ATOM      4  C   UNL     1     145.879  94.313 135.221  1.00  0.00     0.131 A 
ATOM      5  C   UNL     1     145.810  94.703 136.560  1.00  0.00     0.132 A 
ATOM      6  N   UNL     1     144.937  95.636 137.013  1.00  0.00    -0.247 NA
ATOM      7  C   UNL     1     144.152  96.139 136.040  1.00  0.00     0.156 A 
ATOM      8  C   UNL     1     143.118  97.171 136.204  1.00  0.00     0.283 C 
ATOM      9  O   UNL     1     142.849  97.697 137.269  1.00  0.00    -0.267 OA
ATOM     10  N   UNL     1     142.583  97.402 134.943  1.00  0.00    -0.248 N 
ENDROOT
BRANCH   1  11
ATOM     11  O   UNL     1     142.184  95.623 133.470  1.00  0.00    -0.419 OA
BRANCH  11  12
ATOM     12  C   UNL     1     142.063  95.568 132.120  1.00  0.00     0.412 C 
ATOM     13  N   UNL     1     138.051  96.539 130.776  1.00  0.00    -0.303 NA
ATOM     14  C   UNL     1     138.289  95.710 131.975  1.00  0.00     0.106 C 
ATOM     15  C   UNL     1     139.279  96.758 129.983  1.00  0.00     0.106 C 
ATOM     16  C   UNL     1     139.651  95.977 132.637  1.00  0.00     0.138 C 
ATOM     17  C   UNL     1     140.442  95.795 130.286  1.00  0.00     0.138 C 
ATOM     18  N   UNL     1     140.761  95.759 131.709  1.00  0.00    -0.306 N 
ATOM     19  O   UNL     1     142.998  95.376 131.352  1.00  0.00    -0.224 OA
ATOM     20  C   UNL     1     136.971  95.982 129.967  1.00  0.00     0.105 C 
ENDBRANCH  11  12
ENDBRANCH   1  11
BRANCH  10  21
ATOM     21  C   UNL     1     141.618  98.355 134.579  1.00  0.00     0.138 A 
ATOM     22  C   UNL     1     141.641  99.008 133.348  1.00  0.00     0.049 A 
ATOM     23  N   UNL     1     140.643  98.608 135.485  1.00  0.00    -0.237 NA
ATOM     24  C   UNL     1     140.648  99.944 133.042  1.00  0.00     0.026 A 
ATOM     25  C   UNL     1     139.691  99.521 135.169  1.00  0.00     0.134 A 
ATOM     26  C   UNL     1     139.653 100.207 133.969  1.00  0.00     0.059 A 
ATOM     27  Cl  UNL     1     138.419 101.348 133.637  1.00  0.00    -0.083 Cl
ENDBRANCH  10  21
TORSDOF 3
ENDMDL
MODEL 6
REMARK VINA RESULT:    -6.863      5.152      7.899
REMARK INTER + INTRA:          -8.586
REMARK INTER:                  -8.309
REMARK INTRA:                  -0.277
REMARK UNBOUND:                -0.519
REMARK SMILES CN1CCN(C(=O)OC2c3nccnc3C(=O)N2c2ccc(Cl)cn2)CC1
REMARK SMILES IDX 9 1 10 2 11 3 12 4 13 5 14 6 15 7 16 8 17 9 18 10 8 11 6 12
REMARK SMILES IDX 2 13 3 14 27 15 4 16 26 17 5 18 7 19 1 20 19 21 20 22 25 23
REMARK SMILES IDX 21 24 24 25 22 26 23 27
REMARK H PARENT
ROOT
ATOM      1  C   UNL     1     142.340  97.585 134.093  1.00  0.00     0.338 C 
ATOM      2  C   UNL     1     141.522  98.503 133.219  1.00  0.00     0.134 A 
ATOM      3  N   UNL     1     141.625  98.688 131.882  1.00  0.00    -0.251 NA
ATOM      4  C   UNL     1     140.751  99.602 131.387  1.00  0.00     0.131 A 
ATOM      5  C   UNL     1     139.834 100.288 132.186  1.00  0.00     0.132 A 
ATOM      6  N   UNL     1     139.737 100.101 133.525  1.00  0.00    -0.247 NA
ATOM      7  C   UNL     1     140.614  99.191 133.994  1.00  0.00     0.156 A 
ATOM      8  C   UNL     1     140.752  98.757 135.392  1.00  0.00     0.283 C 
ATOM      9  O   UNL     1     140.071  99.187 136.305  1.00  0.00    -0.267 OA
ATOM     10  N   UNL     1     141.752  97.793 135.412  1.00  0.00    -0.248 N 
ENDROOT
BRANCH   1  11
ATOM     11  O   UNL     1     143.685  98.049 134.110  1.00  0.00    -0.419 OA
BRANCH  11  12
ATOM     12  C   UNL     1     144.443  97.591 133.083  1.00  0.00     0.412 C 
ATOM     13  N   UNL     1     145.918  93.568 133.780  1.00  0.00    -0.303 NA
ATOM     14  C   UNL     1     145.875  94.577 134.858  1.00  0.00     0.106 C 
ATOM     15  C   UNL     1     145.663  94.150 132.445  1.00  0.00     0.106 C 
ATOM     16  C   UNL     1     144.810  95.662 134.632  1.00  0.00     0.138 C 
ATOM     17  C   UNL     1     145.808  95.681 132.354  1.00  0.00     0.138 C 
ATOM     18  N   UNL     1     145.006  96.364 133.363  1.00  0.00    -0.306 N 
ATOM     19  O   UNL     1     144.608  98.191 132.028  1.00  0.00    -0.224 OA
ATOM     20  C   UNL     1     147.173  92.822 133.819  1.00  0.00     0.105 C 
ENDBRANCH  11  12
ENDBRANCH   1  11
BRANCH  10  21
ATOM     21  C   UNL     1     142.191  97.031 136.508  1.00  0.00     0.138 A 
ATOM     22  C   UNL     1     142.983  97.567 137.520  1.00  0.00     0.049 A 
ATOM     23  N   UNL     1     141.796  95.735 136.541  1.00  0.00    -0.237 NA
ATOM     24  C   UNL     1     143.385  96.757 138.587  1.00  0.00     0.026 A 
ATOM     25  C   UNL     1     142.199  94.967 137.585  1.00  0.00     0.134 A 
ATOM     26  C   UNL     1     142.986  95.431 138.622  1.00  0.00     0.059 A 
ATOM     27  Cl  UNL     1     143.457  94.402 139.909  1.00  0.00    -0.083 Cl
ENDBRANCH  10  21
TORSDOF 3
ENDMDL
MODEL 7
REMARK VINA RESULT:    -6.851      4.776      9.260
REMARK INTER + INTRA:          -8.572
REMARK INTER:                  -7.715
REMARK INTRA:                  -0.858
REMARK UNBOUND:                -0.519
REMARK SMILES CN1CCN(C(=O)OC2c3nccnc3C(=O)N2c2ccc(Cl)cn2)CC1
REMARK SMILES IDX 9 1 10 2 11 3 12 4 13 5 14 6 15 7 16 8 17 9 18 10 8 11 6 12
REMARK SMILES IDX 2 13 3 14 27 15 4 16 26 17 5 18 7 19 1 20 19 21 20 22 25 23
REMARK SMILES IDX 21 24 24 25 22 26 23 27
REMARK H PARENT
ROOT
ATOM      1  C   UNL     1     142.795  97.291 133.766  1.00  0.00     0.338 C 
ATOM      2  C   UNL     1     141.549  98.135 133.863  1.00  0.00     0.134 A 
ATOM      3  N   UNL     1     141.134  98.889 134.907  1.00  0.00    -0.251 NA
ATOM      4  C   UNL     1     139.953  99.523 134.691  1.00  0.00     0.131 A 
ATOM      5  C   UNL     1     139.234  99.403 133.501  1.00  0.00     0.132 A 
ATOM      6  N   UNL     1     139.652  98.644 132.458  1.00  0.00    -0.247 NA
ATOM      7  C   UNL     1     140.825  98.024 132.696  1.00  0.00     0.156 A 
ATOM      8  C   UNL     1     141.547  97.144 131.766  1.00  0.00     0.283 C 
ATOM      9  O   UNL     1     141.151  96.869 130.648  1.00  0.00    -0.267 OA
ATOM     10  N   UNL     1     142.713  96.753 132.412  1.00  0.00    -0.248 N 
ENDROOT
BRANCH   1  11
ATOM     11  O   UNL     1     142.692  96.216 134.694  1.00  0.00    -0.419 OA
BRANCH  11  12
ATOM     12  C   UNL     1     143.710  96.155 135.588  1.00  0.00     0.412 C 
ATOM     13  N   UNL     1     142.305  95.662 139.666  1.00  0.00    -0.303 NA
ATOM     14  C   UNL     1     141.623  96.560 138.713  1.00  0.00     0.106 C 
ATOM     15  C   UNL     1     143.612  95.186 139.164  1.00  0.00     0.106 C 
ATOM     16  C   UNL     1     141.836  96.161 137.243  1.00  0.00     0.138 C 
ATOM     17  C   UNL     1     144.202  95.992 137.991  1.00  0.00     0.138 C 
ATOM     18  N   UNL     1     143.255  96.119 136.889  1.00  0.00    -0.306 N 
ATOM     19  O   UNL     1     144.895  96.129 135.281  1.00  0.00    -0.224 OA
ATOM     20  C   UNL     1     142.421  96.291 140.979  1.00  0.00     0.105 C 
ENDBRANCH  11  12
ENDBRANCH   1  11
BRANCH  10  21
ATOM     21  C   UNL     1     143.761  95.971 131.899  1.00  0.00     0.138 A 
ATOM     22  C   UNL     1     143.536  94.796 131.186  1.00  0.00     0.049 A 
ATOM     23  N   UNL     1     145.019  96.422 132.123  1.00  0.00    -0.237 NA
ATOM     24  C   UNL     1     144.621  94.064 130.697  1.00  0.00     0.026 A 
ATOM     25  C   UNL     1     146.058  95.696 131.641  1.00  0.00     0.134 A 
ATOM     26  C   UNL     1     145.909  94.521 130.928  1.00  0.00     0.059 A 
ATOM     27  Cl  UNL     1     147.269  93.654 130.349  1.00  0.00    -0.083 Cl
ENDBRANCH  10  21
TORSDOF 3
ENDMDL
MODEL 8
REMARK VINA RESULT:    -6.807      7.933      9.887
REMARK INTER + INTRA:          -8.520
REMARK INTER:                  -7.645
REMARK INTRA:                  -0.875
REMARK UNBOUND:                -0.519
REMARK SMILES CN1CCN(C(=O)OC2c3nccnc3C(=O)N2c2ccc(Cl)cn2)CC1
REMARK SMILES IDX 9 1 10 2 11 3 12 4 13 5 14 6 15 7 16 8 17 9 18 10 8 11 6 12
REMARK SMILES IDX 2 13 3 14 27 15 4 16 26 17 5 18 7 19 1 20 19 21 20 22 25 23
REMARK SMILES IDX 21 24 24 25 22 26 23 27
REMARK H PARENT
ROOT
ATOM      1  C   UNL     1     142.695  96.859 132.066  1.00  0.00     0.338 C 
ATOM      2  C   UNL     1     144.075  96.254 132.144  1.00  0.00     0.134 A 
ATOM      3  N   UNL     1     144.635  95.350 131.307  1.00  0.00    -0.251 NA
ATOM      4  C   UNL     1     145.895  94.985 131.658  1.00  0.00     0.131 A 
ATOM      5  C   UNL     1     146.549  95.495 132.781  1.00  0.00     0.132 A 
ATOM      6  N   UNL     1     145.982  96.398 133.619  1.00  0.00    -0.247 NA
ATOM      7  C   UNL     1     144.732  96.744 133.251  1.00  0.00     0.156 A 
ATOM      8  C   UNL     1     143.859  97.705 133.940  1.00  0.00     0.283 C 
ATOM      9  O   UNL     1     144.179  98.309 134.948  1.00  0.00    -0.267 OA
ATOM     10  N   UNL     1     142.683  97.772 133.205  1.00  0.00    -0.248 N 
ENDROOT
BRANCH   1  11
ATOM     11  O   UNL     1     141.733  95.834 132.290  1.00  0.00    -0.419 OA
BRANCH  11  12
ATOM     12  C   UNL     1     141.218  95.300 131.154  1.00  0.00     0.412 C 
ATOM     13  N   UNL     1     140.418  91.050 131.539  1.00  0.00    -0.303 NA
ATOM     14  C   UNL     1     141.634  91.666 132.108  1.00  0.00     0.106 C 
ATOM     15  C   UNL     1     139.684  91.966 130.639  1.00  0.00     0.106 C 
ATOM     16  C   UNL     1     141.465  93.161 132.426  1.00  0.00     0.138 C 
ATOM     17  C   UNL     1     140.485  93.184 130.141  1.00  0.00     0.138 C 
ATOM     18  N   UNL     1     141.080  93.931 131.243  1.00  0.00    -0.306 N 
ATOM     19  O   UNL     1     140.907  95.953 130.166  1.00  0.00    -0.224 OA
ATOM     20  C   UNL     1     140.737  89.783 130.886  1.00  0.00     0.105 C 
ENDBRANCH  11  12
ENDBRANCH   1  11
BRANCH  10  21
ATOM     21  C   UNL     1     141.576  98.609 133.425  1.00  0.00     0.138 A 
ATOM     22  C   UNL     1     140.917  98.669 134.650  1.00  0.00     0.049 A 
ATOM     23  N   UNL     1     141.178  99.374 132.380  1.00  0.00    -0.237 NA
ATOM     24  C   UNL     1     139.824  99.526 134.808  1.00  0.00     0.026 A 
ATOM     25  C   UNL     1     140.113 100.198 132.554  1.00  0.00     0.134 A 
ATOM     26  C   UNL     1     139.412 100.306 133.740  1.00  0.00     0.059 A 
ATOM     27  Cl  UNL     1     138.076 101.368 133.888  1.00  0.00    -0.083 Cl
ENDBRANCH  10  21
TORSDOF 3
ENDMDL
MODEL 9
REMARK VINA RESULT:    -6.788      4.990      7.996
REMARK INTER + INTRA:          -8.498
REMARK INTER:                  -7.440
REMARK INTRA:                  -1.059
REMARK UNBOUND:                -0.519
REMARK SMILES CN1CCN(C(=O)OC2c3nccnc3C(=O)N2c2ccc(Cl)cn2)CC1
REMARK SMILES IDX 9 1 10 2 11 3 12 4 13 5 14 6 15 7 16 8 17 9 18 10 8 11 6 12
REMARK SMILES IDX 2 13 3 14 27 15 4 16 26 17 5 18 7 19 1 20 19 21 20 22 25 23
REMARK SMILES IDX 21 24 24 25 22 26 23 27
REMARK H PARENT
ROOT
ATOM      1  C   UNL     1     143.285  97.088 135.641  1.00  0.00     0.338 C 
ATOM      2  C   UNL     1     143.414  96.720 137.098  1.00  0.00     0.134 A 
ATOM      3  N   UNL     1     144.541  96.410 137.780  1.00  0.00    -0.251 NA
ATOM      4  C   UNL     1     144.325  96.105 139.086  1.00  0.00     0.131 A 
ATOM      5  C   UNL     1     143.055  96.109 139.667  1.00  0.00     0.132 A 
ATOM      6  N   UNL     1     141.929  96.417 138.977  1.00  0.00    -0.247 NA
ATOM      7  C   UNL     1     142.168  96.715 137.685  1.00  0.00     0.156 A 
ATOM      8  C   UNL     1     141.164  97.101 136.682  1.00  0.00     0.283 C 
ATOM      9  O   UNL     1     139.973  97.193 136.917  1.00  0.00    -0.267 OA
ATOM     10  N   UNL     1     141.855  97.341 135.501  1.00  0.00    -0.248 N 
ENDROOT
BRANCH   1  11
ATOM     11  O   UNL     1     143.630  95.955 134.851  1.00  0.00    -0.419 OA
BRANCH  11  12
ATOM     12  C   UNL     1     144.641  96.177 133.974  1.00  0.00     0.412 C 
ATOM     13  N   UNL     1     147.751  93.159 134.234  1.00  0.00    -0.303 NA
ATOM     14  C   UNL     1     147.093  93.701 135.440  1.00  0.00     0.106 C 
ATOM     15  C   UNL     1     147.424  93.927 133.013  1.00  0.00     0.106 C 
ATOM     16  C   UNL     1     145.678  94.240 135.169  1.00  0.00     0.138 C 
ATOM     17  C   UNL     1     146.833  95.328 133.253  1.00  0.00     0.138 C 
ATOM     18  N   UNL     1     145.679  95.286 134.145  1.00  0.00    -0.306 N 
ATOM     19  O   UNL     1     144.636  97.061 133.126  1.00  0.00    -0.224 OA
ATOM     20  C   UNL     1     149.193  93.045 134.438  1.00  0.00     0.105 C 
ENDBRANCH  11  12
ENDBRANCH   1  11
BRANCH  10  21
ATOM     21  C   UNL     1     141.337  97.808 134.281  1.00  0.00     0.138 A 
ATOM     22  C   UNL     1     141.516  99.120 133.848  1.00  0.00     0.049 A 
ATOM     23  N   UNL     1     140.657  96.911 133.528  1.00  0.00    -0.237 NA
ATOM     24  C   UNL     1     140.980  99.524 132.622  1.00  0.00     0.026 A 
ATOM     25  C   UNL     1     140.144  97.324 132.341  1.00  0.00     0.134 A 
ATOM     26  C   UNL     1     140.280  98.609 131.852  1.00  0.00     0.059 A 
ATOM     27  Cl  UNL     1     139.605  99.061 130.343  1.00  0.00    -0.083 Cl
ENDBRANCH  10  21
TORSDOF 3
ENDMDL
