MODEL 1
REMARK VINA RESULT:   -10.574      0.000      0.000
REMARK INTER + INTRA:         -11.584
REMARK INTER:                 -11.192
REMARK INTRA:                  -0.391
REMARK UNBOUND:                -0.391
REMARK SMILES Cc1nnc2n1-c1ccc(Cl)cc1C(c1ccccc1)=NC2
REMARK SMILES IDX 1 1 2 2 3 3 4 4 5 5 6 6 7 7 8 8 9 9 10 10 11 11 12 12 13 13
REMARK SMILES IDX 14 14 21 15 22 16 15 17 16 18 20 19 17 20 19 21 18 22
REMARK H PARENT
ROOT
ATOM      1  C   UNL     1     115.455 160.743 113.002  1.00  0.00     0.090 C 
ATOM      2  C   UNL     1     116.682 160.837 112.178  1.00  0.00     0.134 A 
ATOM      3  N   UNL     1     117.143 161.959 111.662  1.00  0.00    -0.135 NA
ATOM      4  N   UNL     1     118.197 161.657 110.846  1.00  0.00    -0.133 NA
ATOM      5  C   UNL     1     118.370 160.354 110.875  1.00  0.00     0.159 A 
ATOM      6  N   UNL     1     117.462 159.779 111.738  1.00  0.00    -0.281 N 
ATOM      7  C   UNL     1     117.446 158.412 112.119  1.00  0.00     0.058 A 
ATOM      8  C   UNL     1     117.107 158.072 113.439  1.00  0.00     0.029 A 
ATOM      9  C   UNL     1     117.174 156.743 113.868  1.00  0.00     0.023 A 
ATOM     10  C   UNL     1     117.593 155.750 112.990  1.00  0.00     0.041 A 
ATOM     11  Cl  UNL     1     117.693 154.120 113.527  1.00  0.00    -0.084 Cl
ATOM     12  C   UNL     1     117.929 156.068 111.677  1.00  0.00     0.033 A 
ATOM     13  C   UNL     1     117.840 157.397 111.223  1.00  0.00     0.026 A 
ATOM     14  C   UNL     1     118.103 157.636 109.766  1.00  0.00     0.075 C 
ATOM     15  N   UNL     1     118.828 158.594 109.294  1.00  0.00    -0.276 NA
ATOM     16  C   UNL     1     119.425 159.574 110.189  1.00  0.00     0.220 C 
ENDROOT
BRANCH  14  17
ATOM     17  C   UNL     1     117.485 156.703 108.767  1.00  0.00     0.000 A 
ATOM     18  C   UNL     1     118.279 156.195 107.731  1.00  0.00     0.010 A 
ATOM     19  C   UNL     1     116.129 156.359 108.836  1.00  0.00     0.010 A 
ATOM     20  C   UNL     1     117.727 155.327 106.789  1.00  0.00     0.001 A 
ATOM     21  C   UNL     1     115.583 155.489 107.890  1.00  0.00     0.001 A 
ATOM     22  C   UNL     1     116.381 154.970 106.871  1.00  0.00     0.000 A 
ENDBRANCH  14  17
TORSDOF 1
ENDMDL
MODEL 2
REMARK VINA RESULT:    -9.103      2.910      6.377
REMARK INTER + INTRA:         -10.026
REMARK INTER:                 -10.338
REMARK INTRA:                   0.312
REMARK UNBOUND:                -0.391
REMARK SMILES Cc1nnc2n1-c1ccc(Cl)cc1C(c1ccccc1)=NC2
REMARK SMILES IDX 1 1 2 2 3 3 4 4 5 5 6 6 7 7 8 8 9 9 10 10 11 11 12 12 13 13
REMARK SMILES IDX 14 14 21 15 22 16 15 17 16 18 20 19 17 20 19 21 18 22
REMARK H PARENT
ROOT
ATOM      1  C   UNL     1     117.464 156.480 106.421  1.00  0.00     0.090 C 
ATOM      2  C   UNL     1     117.535 156.188 107.872  1.00  0.00     0.134 A 
ATOM      3  N   UNL     1     116.822 155.259 108.476  1.00  0.00    -0.135 NA
ATOM      4  N   UNL     1     117.029 155.366 109.823  1.00  0.00    -0.133 NA
ATOM      5  C   UNL     1     117.869 156.357 110.026  1.00  0.00     0.159 A 
ATOM      6  N   UNL     1     118.261 156.895 108.819  1.00  0.00    -0.281 N 
ATOM      7  C   UNL     1     119.261 157.887 108.650  1.00  0.00     0.058 A 
ATOM      8  C   UNL     1     120.114 157.819 107.535  1.00  0.00     0.029 A 
ATOM      9  C   UNL     1     121.167 158.727 107.392  1.00  0.00     0.023 A 
ATOM     10  C   UNL     1     121.385 159.696 108.365  1.00  0.00     0.041 A 
ATOM     11  Cl  UNL     1     122.693 160.798 108.195  1.00  0.00    -0.084 Cl
ATOM     12  C   UNL     1     120.548 159.781 109.474  1.00  0.00     0.033 A 
ATOM     13  C   UNL     1     119.466 158.891 109.618  1.00  0.00     0.026 A 
ATOM     14  C   UNL     1     118.544 159.126 110.776  1.00  0.00     0.075 C 
ATOM     15  N   UNL     1     118.090 158.205 111.556  1.00  0.00    -0.276 NA
ATOM     16  C   UNL     1     118.427 156.808 111.321  1.00  0.00     0.220 C 
ENDROOT
BRANCH  14  17
ATOM     17  C   UNL     1     118.103 160.531 111.064  1.00  0.00     0.000 A 
ATOM     18  C   UNL     1     117.018 160.740 111.923  1.00  0.00     0.010 A 
ATOM     19  C   UNL     1     118.736 161.628 110.464  1.00  0.00     0.010 A 
ATOM     20  C   UNL     1     116.588 162.037 112.205  1.00  0.00     0.001 A 
ATOM     21  C   UNL     1     118.301 162.924 110.751  1.00  0.00     0.001 A 
ATOM     22  C   UNL     1     117.233 163.128 111.623  1.00  0.00     0.000 A 
ENDBRANCH  14  17
TORSDOF 1
ENDMDL
MODEL 3
REMARK VINA RESULT:    -7.255      4.412      7.091
REMARK INTER + INTRA:          -8.071
REMARK INTER:                  -7.642
REMARK INTRA:                  -0.429
REMARK UNBOUND:                -0.391
REMARK SMILES Cc1nnc2n1-c1ccc(Cl)cc1C(c1ccccc1)=NC2
REMARK SMILES IDX 1 1 2 2 3 3 4 4 5 5 6 6 7 7 8 8 9 9 10 10 11 11 12 12 13 13
REMARK SMILES IDX 14 14 21 15 22 16 15 17 16 18 20 19 17 20 19 21 18 22
REMARK H PARENT
ROOT
ATOM      1  C   UNL     1     115.935 153.842 116.703  1.00  0.00     0.090 C 
ATOM      2  C   UNL     1     116.305 155.100 117.393  1.00  0.00     0.134 A 
ATOM      3  N   UNL     1     116.316 155.250 118.702  1.00  0.00    -0.135 NA
ATOM      4  N   UNL     1     116.558 156.565 118.983  1.00  0.00    -0.133 NA
ATOM      5  C   UNL     1     116.696 157.203 117.840  1.00  0.00     0.159 A 
ATOM      6  N   UNL     1     116.587 156.317 116.791  1.00  0.00    -0.281 N 
ATOM      7  C   UNL     1     116.817 156.629 115.426  1.00  0.00     0.058 A 
ATOM      8  C   UNL     1     117.439 155.678 114.600  1.00  0.00     0.029 A 
ATOM      9  C   UNL     1     117.763 155.993 113.277  1.00  0.00     0.023 A 
ATOM     10  C   UNL     1     117.484 157.259 112.777  1.00  0.00     0.041 A 
ATOM     11  Cl  UNL     1     117.902 157.648 111.155  1.00  0.00    -0.084 Cl
ATOM     12  C   UNL     1     116.865 158.213 113.580  1.00  0.00     0.033 A 
ATOM     13  C   UNL     1     116.507 157.902 114.905  1.00  0.00     0.026 A 
ATOM     14  C   UNL     1     115.737 158.942 115.663  1.00  0.00     0.075 C 
ATOM     15  N   UNL     1     115.973 159.292 116.882  1.00  0.00    -0.276 NA
ATOM     16  C   UNL     1     117.022 158.635 117.647  1.00  0.00     0.220 C 
ENDROOT
BRANCH  14  17
ATOM     17  C   UNL     1     114.604 159.638 114.968  1.00  0.00     0.000 A 
ATOM     18  C   UNL     1     114.817 160.914 114.433  1.00  0.00     0.010 A 
ATOM     19  C   UNL     1     113.337 159.048 114.875  1.00  0.00     0.010 A 
ATOM     20  C   UNL     1     113.779 161.582 113.783  1.00  0.00     0.001 A 
ATOM     21  C   UNL     1     112.302 159.722 114.223  1.00  0.00     0.001 A 
ATOM     22  C   UNL     1     112.524 160.985 113.674  1.00  0.00     0.000 A 
ENDBRANCH  14  17
TORSDOF 1
ENDMDL
MODEL 4
REMARK VINA RESULT:    -7.247      2.847      3.914
REMARK INTER + INTRA:          -8.062
REMARK INTER:                  -8.363
REMARK INTRA:                   0.301
REMARK UNBOUND:                -0.391
REMARK SMILES Cc1nnc2n1-c1ccc(Cl)cc1C(c1ccccc1)=NC2
REMARK SMILES IDX 1 1 2 2 3 3 4 4 5 5 6 6 7 7 8 8 9 9 10 10 11 11 12 12 13 13
REMARK SMILES IDX 14 14 21 15 22 16 15 17 16 18 20 19 17 20 19 21 18 22
REMARK H PARENT
ROOT
ATOM      1  C   UNL     1     118.941 162.997 109.781  1.00  0.00     0.090 C 
ATOM      2  C   UNL     1     120.252 162.447 109.367  1.00  0.00     0.134 A 
ATOM      3  N   UNL     1     121.273 163.182 108.974  1.00  0.00    -0.135 NA
ATOM      4  N   UNL     1     122.259 162.348 108.529  1.00  0.00    -0.133 NA
ATOM      5  C   UNL     1     121.831 161.111 108.658  1.00  0.00     0.159 A 
ATOM      6  N   UNL     1     120.575 161.105 109.225  1.00  0.00    -0.281 N 
ATOM      7  C   UNL     1     119.865 159.947 109.635  1.00  0.00     0.058 A 
ATOM      8  C   UNL     1     119.084 159.998 110.801  1.00  0.00     0.029 A 
ATOM      9  C   UNL     1     118.450 158.847 111.280  1.00  0.00     0.023 A 
ATOM     10  C   UNL     1     118.604 157.640 110.609  1.00  0.00     0.041 A 
ATOM     11  Cl  UNL     1     117.838 156.223 111.212  1.00  0.00    -0.084 Cl
ATOM     12  C   UNL     1     119.371 157.572 109.449  1.00  0.00     0.033 A 
ATOM     13  C   UNL     1     119.992 158.727 108.939  1.00  0.00     0.026 A 
ATOM     14  C   UNL     1     120.699 158.594 107.624  1.00  0.00     0.075 C 
ATOM     15  N   UNL     1     121.864 159.082 107.359  1.00  0.00    -0.276 NA
ATOM     16  C   UNL     1     122.577 159.868 108.355  1.00  0.00     0.220 C 
ENDROOT
BRANCH  14  17
ATOM     17  C   UNL     1     120.016 157.841 106.520  1.00  0.00     0.000 A 
ATOM     18  C   UNL     1     120.519 157.942 105.217  1.00  0.00     0.010 A 
ATOM     19  C   UNL     1     118.873 157.070 106.766  1.00  0.00     0.010 A 
ATOM     20  C   UNL     1     119.900 157.253 104.174  1.00  0.00     0.001 A 
ATOM     21  C   UNL     1     118.259 156.381 105.718  1.00  0.00     0.001 A 
ATOM     22  C   UNL     1     118.774 156.470 104.425  1.00  0.00     0.000 A 
ENDBRANCH  14  17
TORSDOF 1
ENDMDL
MODEL 5
REMARK VINA RESULT:    -7.201      3.248      6.573
REMARK INTER + INTRA:          -8.013
REMARK INTER:                  -8.332
REMARK INTRA:                   0.319
REMARK UNBOUND:                -0.391
REMARK SMILES Cc1nnc2n1-c1ccc(Cl)cc1C(c1ccccc1)=NC2
REMARK SMILES IDX 1 1 2 2 3 3 4 4 5 5 6 6 7 7 8 8 9 9 10 10 11 11 12 12 13 13
REMARK SMILES IDX 14 14 21 15 22 16 15 17 16 18 20 19 17 20 19 21 18 22
REMARK H PARENT
ROOT
ATOM      1  C   UNL     1     117.451 155.623 110.658  1.00  0.00     0.090 C 
ATOM      2  C   UNL     1     117.526 155.788 112.128  1.00  0.00     0.134 A 
ATOM      3  N   UNL     1     117.659 154.791 112.979  1.00  0.00    -0.135 NA
ATOM      4  N   UNL     1     117.544 155.287 114.247  1.00  0.00    -0.133 NA
ATOM      5  C   UNL     1     117.347 156.585 114.156  1.00  0.00     0.159 A 
ATOM      6  N   UNL     1     117.366 156.971 112.834  1.00  0.00    -0.281 N 
ATOM      7  C   UNL     1     117.322 158.312 112.370  1.00  0.00     0.058 A 
ATOM      8  C   UNL     1     118.082 158.675 111.246  1.00  0.00     0.029 A 
ATOM      9  C   UNL     1     118.132 160.007 110.824  1.00  0.00     0.023 A 
ATOM     10  C   UNL     1     117.437 160.984 111.528  1.00  0.00     0.041 A 
ATOM     11  Cl  UNL     1     117.517 162.624 111.018  1.00  0.00    -0.084 Cl
ATOM     12  C   UNL     1     116.676 160.642 112.643  1.00  0.00     0.033 A 
ATOM     13  C   UNL     1     116.594 159.301 113.063  1.00  0.00     0.026 A 
ATOM     14  C   UNL     1     115.659 159.001 114.196  1.00  0.00     0.075 C 
ATOM     15  N   UNL     1     115.936 158.237 115.198  1.00  0.00    -0.276 NA
ATOM     16  C   UNL     1     117.218 157.552 115.270  1.00  0.00     0.220 C 
ENDROOT
BRANCH  14  17
ATOM     17  C   UNL     1     114.295 159.625 114.179  1.00  0.00     0.000 A 
ATOM     18  C   UNL     1     113.223 158.928 114.751  1.00  0.00     0.010 A 
ATOM     19  C   UNL     1     114.073 160.870 113.577  1.00  0.00     0.010 A 
ATOM     20  C   UNL     1     111.944 159.487 114.746  1.00  0.00     0.001 A 
ATOM     21  C   UNL     1     112.791 161.424 113.576  1.00  0.00     0.001 A 
ATOM     22  C   UNL     1     111.730 160.736 114.164  1.00  0.00     0.000 A 
ENDBRANCH  14  17
TORSDOF 1
ENDMDL
MODEL 6
REMARK VINA RESULT:    -6.681      2.853      4.647
REMARK INTER + INTRA:          -7.463
REMARK INTER:                  -7.492
REMARK INTRA:                   0.029
REMARK UNBOUND:                -0.391
REMARK SMILES Cc1nnc2n1-c1ccc(Cl)cc1C(c1ccccc1)=NC2
REMARK SMILES IDX 1 1 2 2 3 3 4 4 5 5 6 6 7 7 8 8 9 9 10 10 11 11 12 12 13 13
REMARK SMILES IDX 14 14 21 15 22 16 15 17 16 18 20 19 17 20 19 21 18 22
REMARK H PARENT
ROOT
ATOM      1  C   UNL     1     111.140 159.710 113.864  1.00  0.00     0.090 C 
ATOM      2  C   UNL     1     112.188 160.758 113.849  1.00  0.00     0.134 A 
ATOM      3  N   UNL     1     111.977 162.011 113.500  1.00  0.00    -0.135 NA
ATOM      4  N   UNL     1     113.180 162.656 113.460  1.00  0.00    -0.133 NA
ATOM      5  C   UNL     1     114.114 161.790 113.788  1.00  0.00     0.159 A 
ATOM      6  N   UNL     1     113.541 160.573 114.088  1.00  0.00    -0.281 N 
ATOM      7  C   UNL     1     114.231 159.448 114.611  1.00  0.00     0.058 A 
ATOM      8  C   UNL     1     113.593 158.633 115.561  1.00  0.00     0.029 A 
ATOM      9  C   UNL     1     114.280 157.575 116.163  1.00  0.00     0.023 A 
ATOM     10  C   UNL     1     115.609 157.334 115.833  1.00  0.00     0.041 A 
ATOM     11  Cl  UNL     1     116.457 156.044 116.591  1.00  0.00    -0.084 Cl
ATOM     12  C   UNL     1     116.256 158.130 114.892  1.00  0.00     0.033 A 
ATOM     13  C   UNL     1     115.569 159.181 114.257  1.00  0.00     0.026 A 
ATOM     14  C   UNL     1     116.299 159.911 113.169  1.00  0.00     0.075 C 
ATOM     15  N   UNL     1     116.322 161.193 113.028  1.00  0.00    -0.276 NA
ATOM     16  C   UNL     1     115.565 162.047 113.932  1.00  0.00     0.220 C 
ENDROOT
BRANCH  14  17
ATOM     17  C   UNL     1     117.066 159.107 112.161  1.00  0.00     0.000 A 
ATOM     18  C   UNL     1     117.956 159.766 111.303  1.00  0.00     0.010 A 
ATOM     19  C   UNL     1     116.883 157.724 112.044  1.00  0.00     0.010 A 
ATOM     20  C   UNL     1     118.679 159.040 110.356  1.00  0.00     0.001 A 
ATOM     21  C   UNL     1     117.611 157.003 111.094  1.00  0.00     0.001 A 
ATOM     22  C   UNL     1     118.510 157.660 110.255  1.00  0.00     0.000 A 
ENDBRANCH  14  17
TORSDOF 1
ENDMDL
