MODEL 1
REMARK VINA RESULT:    -7.657      0.000      0.000
REMARK INTER + INTRA:          -7.781
REMARK INTER:                  -8.105
REMARK INTRA:                   0.324
REMARK UNBOUND:                 0.324
REMARK SMILES Cc1nnc2n1-c1ccc(Cl)cc1C(c1ccccc1)=NC2
REMARK SMILES IDX 1 1 2 2 3 3 4 4 5 5 6 6 7 7 8 8 9 9 10 10 11 11 12 12 13 13
REMARK SMILES IDX 14 14 21 15 22 16 15 17 16 18 20 19 17 20 19 21 18 22
REMARK H PARENT
ROOT
ATOM      1  C   UNL     1     141.824  95.662 130.753  1.00  0.00     0.090 C 
ATOM      2  C   UNL     1     142.888  96.411 131.462  1.00  0.00     0.134 A 
ATOM      3  N   UNL     1     144.175  96.149 131.353  1.00  0.00    -0.135 NA
ATOM      4  N   UNL     1     144.851  96.928 132.249  1.00  0.00    -0.133 NA
ATOM      5  C   UNL     1     143.968  97.660 132.894  1.00  0.00     0.159 A 
ATOM      6  N   UNL     1     142.704  97.407 132.409  1.00  0.00    -0.281 N 
ATOM      7  C   UNL     1     141.529  98.113 132.775  1.00  0.00     0.058 A 
ATOM      8  C   UNL     1     140.552  98.373 131.799  1.00  0.00     0.029 A 
ATOM      9  C   UNL     1     139.430  99.147 132.108  1.00  0.00     0.023 A 
ATOM     10  C   UNL     1     139.282  99.676 133.385  1.00  0.00     0.041 A 
ATOM     11  Cl  UNL     1     137.910 100.644 133.756  1.00  0.00    -0.084 Cl
ATOM     12  C   UNL     1     140.238  99.426 134.366  1.00  0.00     0.033 A 
ATOM     13  C   UNL     1     141.359  98.626 134.077  1.00  0.00     0.026 A 
ATOM     14  C   UNL     1     142.277  98.306 135.219  1.00  0.00     0.075 C 
ATOM     15  N   UNL     1     143.565  98.352 135.166  1.00  0.00    -0.276 NA
ATOM     16  C   UNL     1     144.239  98.691 133.922  1.00  0.00     0.220 C 
ENDROOT
BRANCH  14  17
ATOM     17  C   UNL     1     141.670  97.897 136.529  1.00  0.00     0.000 A 
ATOM     18  C   UNL     1     142.393  97.051 137.378  1.00  0.00     0.010 A 
ATOM     19  C   UNL     1     140.386  98.320 136.898  1.00  0.00     0.010 A 
ATOM     20  C   UNL     1     141.849  96.656 138.601  1.00  0.00     0.001 A 
ATOM     21  C   UNL     1     139.847  97.921 138.124  1.00  0.00     0.001 A 
ATOM     22  C   UNL     1     140.580  97.095 138.975  1.00  0.00     0.000 A 
ENDBRANCH  14  17
TORSDOF 1
ENDMDL
MODEL 2
REMARK VINA RESULT:    -7.564      3.368      5.112
REMARK INTER + INTRA:          -7.682
REMARK INTER:                  -7.280
REMARK INTRA:                  -0.403
REMARK UNBOUND:                 0.324
REMARK SMILES Cc1nnc2n1-c1ccc(Cl)cc1C(c1ccccc1)=NC2
REMARK SMILES IDX 1 1 2 2 3 3 4 4 5 5 6 6 7 7 8 8 9 9 10 10 11 11 12 12 13 13
REMARK SMILES IDX 14 14 21 15 22 16 15 17 16 18 20 19 17 20 19 21 18 22
REMARK H PARENT
ROOT
ATOM      1  C   UNL     1     139.122  97.691 133.996  1.00  0.00     0.090 C 
ATOM      2  C   UNL     1     140.457  98.282 133.742  1.00  0.00     0.134 A 
ATOM      3  N   UNL     1     140.754  99.012 132.686  1.00  0.00    -0.135 NA
ATOM      4  N   UNL     1     142.097  99.264 132.700  1.00  0.00    -0.133 NA
ATOM      5  C   UNL     1     142.604  98.688 133.768  1.00  0.00     0.159 A 
ATOM      6  N   UNL     1     141.604  98.081 134.495  1.00  0.00    -0.281 N 
ATOM      7  C   UNL     1     141.765  97.482 135.772  1.00  0.00     0.058 A 
ATOM      8  C   UNL     1     140.739  97.608 136.723  1.00  0.00     0.029 A 
ATOM      9  C   UNL     1     140.909  97.110 138.018  1.00  0.00     0.023 A 
ATOM     10  C   UNL     1     142.105  96.498 138.375  1.00  0.00     0.041 A 
ATOM     11  Cl  UNL     1     142.317  95.905 139.975  1.00  0.00    -0.084 Cl
ATOM     12  C   UNL     1     143.131  96.362 137.444  1.00  0.00     0.033 A 
ATOM     13  C   UNL     1     142.964  96.833 136.129  1.00  0.00     0.026 A 
ATOM     14  C   UNL     1     144.068  96.539 135.157  1.00  0.00     0.075 C 
ATOM     15  N   UNL     1     144.558  97.388 134.318  1.00  0.00    -0.276 NA
ATOM     16  C   UNL     1     144.011  98.734 134.228  1.00  0.00     0.220 C 
ENDROOT
BRANCH  14  17
ATOM     17  C   UNL     1     144.658  95.160 135.144  1.00  0.00     0.000 A 
ATOM     18  C   UNL     1     144.025  94.157 134.400  1.00  0.00     0.010 A 
ATOM     19  C   UNL     1     145.807  94.854 135.886  1.00  0.00     0.010 A 
ATOM     20  C   UNL     1     144.554  92.866 134.374  1.00  0.00     0.001 A 
ATOM     21  C   UNL     1     146.331  93.560 135.855  1.00  0.00     0.001 A 
ATOM     22  C   UNL     1     145.708  92.570 135.097  1.00  0.00     0.000 A 
ENDBRANCH  14  17
TORSDOF 1
ENDMDL
MODEL 3
REMARK VINA RESULT:    -7.326      3.156      6.029
REMARK INTER + INTRA:          -7.431
REMARK INTER:                  -6.977
REMARK INTRA:                  -0.454
REMARK UNBOUND:                 0.324
REMARK SMILES Cc1nnc2n1-c1ccc(Cl)cc1C(c1ccccc1)=NC2
REMARK SMILES IDX 1 1 2 2 3 3 4 4 5 5 6 6 7 7 8 8 9 9 10 10 11 11 12 12 13 13
REMARK SMILES IDX 14 14 21 15 22 16 15 17 16 18 20 19 17 20 19 21 18 22
REMARK H PARENT
ROOT
ATOM      1  C   UNL     1     141.723  95.408 136.975  1.00  0.00     0.090 C 
ATOM      2  C   UNL     1     141.347  96.774 136.540  1.00  0.00     0.134 A 
ATOM      3  N   UNL     1     140.905  97.713 137.351  1.00  0.00    -0.135 NA
ATOM      4  N   UNL     1     140.518  98.786 136.599  1.00  0.00    -0.133 NA
ATOM      5  C   UNL     1     140.732  98.490 135.335  1.00  0.00     0.159 A 
ATOM      6  N   UNL     1     141.298  97.238 135.234  1.00  0.00    -0.281 N 
ATOM      7  C   UNL     1     141.786  96.652 134.038  1.00  0.00     0.058 A 
ATOM      8  C   UNL     1     142.946  95.861 134.084  1.00  0.00     0.029 A 
ATOM      9  C   UNL     1     143.503  95.350 132.908  1.00  0.00     0.023 A 
ATOM     10  C   UNL     1     142.916  95.636 131.681  1.00  0.00     0.041 A 
ATOM     11  Cl  UNL     1     143.615  95.021 130.236  1.00  0.00    -0.084 Cl
ATOM     12  C   UNL     1     141.764  96.415 131.616  1.00  0.00     0.033 A 
ATOM     13  C   UNL     1     141.176  96.913 132.794  1.00  0.00     0.026 A 
ATOM     14  C   UNL     1     139.872  97.640 132.647  1.00  0.00     0.075 C 
ATOM     15  N   UNL     1     139.575  98.748 133.237  1.00  0.00    -0.276 NA
ATOM     16  C   UNL     1     140.515  99.366 134.161  1.00  0.00     0.220 C 
ENDROOT
BRANCH  14  17
ATOM     17  C   UNL     1     138.823  97.049 131.752  1.00  0.00     0.000 A 
ATOM     18  C   UNL     1     138.277  97.839 130.733  1.00  0.00     0.010 A 
ATOM     19  C   UNL     1     138.362  95.740 131.939  1.00  0.00     0.010 A 
ATOM     20  C   UNL     1     137.298  97.313 129.889  1.00  0.00     0.001 A 
ATOM     21  C   UNL     1     137.383  95.218 131.090  1.00  0.00     0.001 A 
ATOM     22  C   UNL     1     136.856  96.002 130.065  1.00  0.00     0.000 A 
ENDBRANCH  14  17
TORSDOF 1
ENDMDL
MODEL 4
REMARK VINA RESULT:    -7.321      3.252      4.774
REMARK INTER + INTRA:          -7.425
REMARK INTER:                  -7.083
REMARK INTRA:                  -0.342
REMARK UNBOUND:                 0.324
REMARK SMILES Cc1nnc2n1-c1ccc(Cl)cc1C(c1ccccc1)=NC2
REMARK SMILES IDX 1 1 2 2 3 3 4 4 5 5 6 6 7 7 8 8 9 9 10 10 11 11 12 12 13 13
REMARK SMILES IDX 14 14 21 15 22 16 15 17 16 18 20 19 17 20 19 21 18 22
REMARK H PARENT
ROOT
ATOM      1  C   UNL     1     143.555  99.075 132.677  1.00  0.00     0.090 C 
ATOM      2  C   UNL     1     142.254  98.731 133.295  1.00  0.00     0.134 A 
ATOM      3  N   UNL     1     141.171  99.478 133.206  1.00  0.00    -0.135 NA
ATOM      4  N   UNL     1     140.208  98.938 134.010  1.00  0.00    -0.133 NA
ATOM      5  C   UNL     1     140.712  97.864 134.579  1.00  0.00     0.159 A 
ATOM      6  N   UNL     1     141.998  97.655 134.132  1.00  0.00    -0.281 N 
ATOM      7  C   UNL     1     142.796  96.520 134.429  1.00  0.00     0.058 A 
ATOM      8  C   UNL     1     143.643  95.998 133.438  1.00  0.00     0.029 A 
ATOM      9  C   UNL     1     144.368  94.826 133.670  1.00  0.00     0.023 A 
ATOM     10  C   UNL     1     144.242  94.161 134.884  1.00  0.00     0.041 A 
ATOM     11  Cl  UNL     1     145.120  92.709 135.159  1.00  0.00    -0.084 Cl
ATOM     12  C   UNL     1     143.409  94.665 135.880  1.00  0.00     0.033 A 
ATOM     13  C   UNL     1     142.694  95.859 135.671  1.00  0.00     0.026 A 
ATOM     14  C   UNL     1     141.917  96.398 136.834  1.00  0.00     0.075 C 
ATOM     15  N   UNL     1     140.713  96.856 136.768  1.00  0.00    -0.276 NA
ATOM     16  C   UNL     1     140.020  96.924 135.490  1.00  0.00     0.220 C 
ENDROOT
BRANCH  14  17
ATOM     17  C   UNL     1     142.572  96.414 138.184  1.00  0.00     0.000 A 
ATOM     18  C   UNL     1     141.819  96.052 139.308  1.00  0.00     0.010 A 
ATOM     19  C   UNL     1     143.905  96.813 138.339  1.00  0.00     0.010 A 
ATOM     20  C   UNL     1     142.405  96.060 140.574  1.00  0.00     0.001 A 
ATOM     21  C   UNL     1     144.486  96.819 139.610  1.00  0.00     0.001 A 
ATOM     22  C   UNL     1     143.739  96.439 140.724  1.00  0.00     0.000 A 
ENDBRANCH  14  17
TORSDOF 1
ENDMDL
MODEL 5
REMARK VINA RESULT:    -7.007      2.848      4.755
REMARK INTER + INTRA:          -7.093
REMARK INTER:                  -6.642
REMARK INTRA:                  -0.451
REMARK UNBOUND:                 0.324
REMARK SMILES Cc1nnc2n1-c1ccc(Cl)cc1C(c1ccccc1)=NC2
REMARK SMILES IDX 1 1 2 2 3 3 4 4 5 5 6 6 7 7 8 8 9 9 10 10 11 11 12 12 13 13
REMARK SMILES IDX 14 14 21 15 22 16 15 17 16 18 20 19 17 20 19 21 18 22
REMARK H PARENT
ROOT
ATOM      1  C   UNL     1     138.560  98.696 132.825  1.00  0.00     0.090 C 
ATOM      2  C   UNL     1     139.930  98.960 132.326  1.00  0.00     0.134 A 
ATOM      3  N   UNL     1     140.199  99.512 131.160  1.00  0.00    -0.135 NA
ATOM      4  N   UNL     1     141.550  99.469 130.964  1.00  0.00    -0.133 NA
ATOM      5  C   UNL     1     142.093  98.893 132.015  1.00  0.00     0.159 A 
ATOM      6  N   UNL     1     141.117  98.583 132.937  1.00  0.00    -0.281 N 
ATOM      7  C   UNL     1     141.352  98.078 134.242  1.00  0.00     0.058 A 
ATOM      8  C   UNL     1     140.533  98.506 135.301  1.00  0.00     0.029 A 
ATOM      9  C   UNL     1     140.800  98.099 136.612  1.00  0.00     0.023 A 
ATOM     10  C   UNL     1     141.890  97.278 136.875  1.00  0.00     0.041 A 
ATOM     11  Cl  UNL     1     142.227  96.796 138.491  1.00  0.00    -0.084 Cl
ATOM     12  C   UNL     1     142.710  96.841 135.838  1.00  0.00     0.033 A 
ATOM     13  C   UNL     1     142.438  97.220 134.510  1.00  0.00     0.026 A 
ATOM     14  C   UNL     1     143.294  96.610 133.440  1.00  0.00     0.075 C 
ATOM     15  N   UNL     1     143.807  97.256 132.449  1.00  0.00    -0.276 NA
ATOM     16  C   UNL     1     143.534  98.675 132.274  1.00  0.00     0.220 C 
ENDROOT
BRANCH  14  17
ATOM     17  C   UNL     1     143.587  95.141 133.513  1.00  0.00     0.000 A 
ATOM     18  C   UNL     1     144.837  94.720 133.983  1.00  0.00     0.010 A 
ATOM     19  C   UNL     1     142.648  94.191 133.090  1.00  0.00     0.010 A 
ATOM     20  C   UNL     1     145.134  93.358 134.058  1.00  0.00     0.001 A 
ATOM     21  C   UNL     1     142.951  92.830 133.168  1.00  0.00     0.001 A 
ATOM     22  C   UNL     1     144.190  92.415 133.656  1.00  0.00     0.000 A 
ENDBRANCH  14  17
TORSDOF 1
ENDMDL
MODEL 6
REMARK VINA RESULT:    -6.784      1.901      2.256
REMARK INTER + INTRA:          -6.857
REMARK INTER:                  -6.533
REMARK INTRA:                  -0.325
REMARK UNBOUND:                 0.324
REMARK SMILES Cc1nnc2n1-c1ccc(Cl)cc1C(c1ccccc1)=NC2
REMARK SMILES IDX 1 1 2 2 3 3 4 4 5 5 6 6 7 7 8 8 9 9 10 10 11 11 12 12 13 13
REMARK SMILES IDX 14 14 21 15 22 16 15 17 16 18 20 19 17 20 19 21 18 22
REMARK H PARENT
ROOT
ATOM      1  C   UNL     1     144.125  93.982 131.805  1.00  0.00     0.090 C 
ATOM      2  C   UNL     1     144.214  95.452 131.970  1.00  0.00     0.134 A 
ATOM      3  N   UNL     1     145.307  96.156 131.756  1.00  0.00    -0.135 NA
ATOM      4  N   UNL     1     145.073  97.445 132.144  1.00  0.00    -0.133 NA
ATOM      5  C   UNL     1     143.837  97.515 132.588  1.00  0.00     0.159 A 
ATOM      6  N   UNL     1     143.224  96.287 132.465  1.00  0.00    -0.281 N 
ATOM      7  C   UNL     1     141.852  96.027 132.718  1.00  0.00     0.058 A 
ATOM      8  C   UNL     1     141.164  95.115 131.900  1.00  0.00     0.029 A 
ATOM      9  C   UNL     1     139.791  94.910 132.065  1.00  0.00     0.023 A 
ATOM     10  C   UNL     1     139.095  95.622 133.035  1.00  0.00     0.041 A 
ATOM     11  Cl  UNL     1     137.403  95.381 133.222  1.00  0.00    -0.084 Cl
ATOM     12  C   UNL     1     139.761  96.527 133.857  1.00  0.00     0.033 A 
ATOM     13  C   UNL     1     141.148  96.724 133.721  1.00  0.00     0.026 A 
ATOM     14  C   UNL     1     141.808  97.623 134.723  1.00  0.00     0.075 C 
ATOM     15  N   UNL     1     142.676  98.533 134.438  1.00  0.00    -0.276 NA
ATOM     16  C   UNL     1     143.123  98.721 133.065  1.00  0.00     0.220 C 
ENDROOT
BRANCH  14  17
ATOM     17  C   UNL     1     141.445  97.467 136.170  1.00  0.00     0.000 A 
ATOM     18  C   UNL     1     142.199  96.599 136.969  1.00  0.00     0.010 A 
ATOM     19  C   UNL     1     140.351  98.146 136.722  1.00  0.00     0.010 A 
ATOM     20  C   UNL     1     141.879  96.435 138.318  1.00  0.00     0.001 A 
ATOM     21  C   UNL     1     140.036  97.978 138.073  1.00  0.00     0.001 A 
ATOM     22  C   UNL     1     140.802  97.128 138.869  1.00  0.00     0.000 A 
ENDBRANCH  14  17
TORSDOF 1
ENDMDL
MODEL 7
REMARK VINA RESULT:    -6.651      2.783      5.148
REMARK INTER + INTRA:          -6.716
REMARK INTER:                  -6.403
REMARK INTRA:                  -0.314
REMARK UNBOUND:                 0.324
REMARK SMILES Cc1nnc2n1-c1ccc(Cl)cc1C(c1ccccc1)=NC2
REMARK SMILES IDX 1 1 2 2 3 3 4 4 5 5 6 6 7 7 8 8 9 9 10 10 11 11 12 12 13 13
REMARK SMILES IDX 14 14 21 15 22 16 15 17 16 18 20 19 17 20 19 21 18 22
REMARK H PARENT
ROOT
ATOM      1  C   UNL     1     145.453  94.988 135.929  1.00  0.00     0.090 C 
ATOM      2  C   UNL     1     144.442  94.309 135.084  1.00  0.00     0.134 A 
ATOM      3  N   UNL     1     144.718  93.342 134.233  1.00  0.00    -0.135 NA
ATOM      4  N   UNL     1     143.586  93.056 133.524  1.00  0.00    -0.133 NA
ATOM      5  C   UNL     1     142.629  93.850 133.953  1.00  0.00     0.159 A 
ATOM      6  N   UNL     1     143.101  94.644 134.975  1.00  0.00    -0.281 N 
ATOM      7  C   UNL     1     142.311  95.521 135.763  1.00  0.00     0.058 A 
ATOM      8  C   UNL     1     142.596  95.657 137.132  1.00  0.00     0.029 A 
ATOM      9  C   UNL     1     141.778  96.440 137.952  1.00  0.00     0.023 A 
ATOM     10  C   UNL     1     140.665  97.078 137.415  1.00  0.00     0.041 A 
ATOM     11  Cl  UNL     1     139.650  98.025 138.430  1.00  0.00    -0.084 Cl
ATOM     12  C   UNL     1     140.370  96.958 136.060  1.00  0.00     0.033 A 
ATOM     13  C   UNL     1     141.200  96.195 135.217  1.00  0.00     0.026 A 
ATOM     14  C   UNL     1     140.882  96.215 133.752  1.00  0.00     0.075 C 
ATOM     15  N   UNL     1     140.864  95.177 132.987  1.00  0.00    -0.276 NA
ATOM     16  C   UNL     1     141.214  93.866 133.515  1.00  0.00     0.220 C 
ENDROOT
BRANCH  14  17
ATOM     17  C   UNL     1     140.557  97.532 133.110  1.00  0.00     0.000 A 
ATOM     18  C   UNL     1     139.227  97.968 133.092  1.00  0.00     0.010 A 
ATOM     19  C   UNL     1     141.553  98.310 132.505  1.00  0.00     0.010 A 
ATOM     20  C   UNL     1     138.900  99.188 132.499  1.00  0.00     0.001 A 
ATOM     21  C   UNL     1     141.219  99.531 131.914  1.00  0.00     0.001 A 
ATOM     22  C   UNL     1     139.895  99.971 131.916  1.00  0.00     0.000 A 
ENDBRANCH  14  17
TORSDOF 1
ENDMDL
MODEL 8
REMARK VINA RESULT:    -6.629      3.247      5.282
REMARK INTER + INTRA:          -6.692
REMARK INTER:                  -6.199
REMARK INTRA:                  -0.493
REMARK UNBOUND:                 0.324
REMARK SMILES Cc1nnc2n1-c1ccc(Cl)cc1C(c1ccccc1)=NC2
REMARK SMILES IDX 1 1 2 2 3 3 4 4 5 5 6 6 7 7 8 8 9 9 10 10 11 11 12 12 13 13
REMARK SMILES IDX 14 14 21 15 22 16 15 17 16 18 20 19 17 20 19 21 18 22
REMARK H PARENT
ROOT
ATOM      1  C   UNL     1     139.502  99.717 133.017  1.00  0.00     0.090 C 
ATOM      2  C   UNL     1     139.774  99.173 134.368  1.00  0.00     0.134 A 
ATOM      3  N   UNL     1     139.707  99.880 135.478  1.00  0.00    -0.135 NA
ATOM      4  N   UNL     1     140.159  99.107 136.510  1.00  0.00    -0.133 NA
ATOM      5  C   UNL     1     140.494  97.934 136.019  1.00  0.00     0.159 A 
ATOM      6  N   UNL     1     140.233  97.899 134.666  1.00  0.00    -0.281 N 
ATOM      7  C   UNL     1     140.344  96.751 133.839  1.00  0.00     0.058 A 
ATOM      8  C   UNL     1     139.407  96.554 132.811  1.00  0.00     0.029 A 
ATOM      9  C   UNL     1     139.434  95.387 132.042  1.00  0.00     0.023 A 
ATOM     10  C   UNL     1     140.383  94.405 132.303  1.00  0.00     0.041 A 
ATOM     11  Cl  UNL     1     140.401  92.963 131.368  1.00  0.00    -0.084 Cl
ATOM     12  C   UNL     1     141.321  94.586 133.316  1.00  0.00     0.033 A 
ATOM     13  C   UNL     1     141.324  95.767 134.080  1.00  0.00     0.026 A 
ATOM     14  C   UNL     1     142.440  95.935 135.067  1.00  0.00     0.075 C 
ATOM     15  N   UNL     1     142.297  96.356 136.278  1.00  0.00    -0.276 NA
ATOM     16  C   UNL     1     140.986  96.756 136.769  1.00  0.00     0.220 C 
ENDROOT
BRANCH  14  17
ATOM     17  C   UNL     1     143.835  95.594 134.632  1.00  0.00     0.000 A 
ATOM     18  C   UNL     1     144.434  96.352 133.619  1.00  0.00     0.010 A 
ATOM     19  C   UNL     1     144.529  94.516 135.197  1.00  0.00     0.010 A 
ATOM     20  C   UNL     1     145.730  96.053 133.196  1.00  0.00     0.001 A 
ATOM     21  C   UNL     1     145.826  94.223 134.769  1.00  0.00     0.001 A 
ATOM     22  C   UNL     1     146.426  94.993 133.774  1.00  0.00     0.000 A 
ENDBRANCH  14  17
TORSDOF 1
ENDMDL
MODEL 9
REMARK VINA RESULT:    -6.344      2.829      5.426
REMARK INTER + INTRA:          -6.391
REMARK INTER:                  -5.951
REMARK INTRA:                  -0.440
REMARK UNBOUND:                 0.324
REMARK SMILES Cc1nnc2n1-c1ccc(Cl)cc1C(c1ccccc1)=NC2
REMARK SMILES IDX 1 1 2 2 3 3 4 4 5 5 6 6 7 7 8 8 9 9 10 10 11 11 12 12 13 13
REMARK SMILES IDX 14 14 21 15 22 16 15 17 16 18 20 19 17 20 19 21 18 22
REMARK H PARENT
ROOT
ATOM      1  C   UNL     1     144.765  95.642 137.222  1.00  0.00     0.090 C 
ATOM      2  C   UNL     1     143.423  96.170 137.561  1.00  0.00     0.134 A 
ATOM      3  N   UNL     1     142.820  95.973 138.716  1.00  0.00    -0.135 NA
ATOM      4  N   UNL     1     141.550  96.468 138.630  1.00  0.00    -0.133 NA
ATOM      5  C   UNL     1     141.392  96.967 137.423  1.00  0.00     0.159 A 
ATOM      6  N   UNL     1     142.563  96.845 136.708  1.00  0.00    -0.281 N 
ATOM      7  C   UNL     1     142.799  97.394 135.420  1.00  0.00     0.058 A 
ATOM      8  C   UNL     1     144.070  97.910 135.117  1.00  0.00     0.029 A 
ATOM      9  C   UNL     1     144.304  98.542 133.892  1.00  0.00     0.023 A 
ATOM     10  C   UNL     1     143.272  98.675 132.971  1.00  0.00     0.041 A 
ATOM     11  Cl  UNL     1     143.559  99.470 131.474  1.00  0.00    -0.084 Cl
ATOM     12  C   UNL     1     142.007  98.166 133.254  1.00  0.00     0.033 A 
ATOM     13  C   UNL     1     141.763  97.503 134.471  1.00  0.00     0.026 A 
ATOM     14  C   UNL     1     140.410  96.880 134.646  1.00  0.00     0.075 C 
ATOM     15  N   UNL     1     139.693  96.961 135.714  1.00  0.00    -0.276 NA
ATOM     16  C   UNL     1     140.197  97.659 136.888  1.00  0.00     0.220 C 
ENDROOT
BRANCH  14  17
ATOM     17  C   UNL     1     139.832  96.098 133.503  1.00  0.00     0.000 A 
ATOM     18  C   UNL     1     140.578  95.049 132.952  1.00  0.00     0.010 A 
ATOM     19  C   UNL     1     138.581  96.421 132.961  1.00  0.00     0.010 A 
ATOM     20  C   UNL     1     140.063  94.308 131.888  1.00  0.00     0.001 A 
ATOM     21  C   UNL     1     138.071  95.675 131.896  1.00  0.00     0.001 A 
ATOM     22  C   UNL     1     138.809  94.619 131.364  1.00  0.00     0.000 A 
ENDBRANCH  14  17
TORSDOF 1
ENDMDL
