MODEL 1
REMARK VINA RESULT:    -9.208      0.000      0.000
REMARK INTER + INTRA:         -11.971
REMARK INTER:                 -11.361
REMARK INTRA:                  -0.610
REMARK UNBOUND:                -0.610
REMARK SMILES CCN(C(C)=O)c1cccc(-c2ccnc3c(C#N)cnn23)c1
REMARK SMILES IDX 3 1 2 2 1 3 4 4 6 5 5 6 7 7 8 8 23 9 9 10 11 11 10 12 12 13
REMARK SMILES IDX 13 14 22 15 14 16 21 17 16 18 15 19 20 20 17 21 18 22 19 23
REMARK H PARENT
ROOT
ATOM      1  N   UNL     1     118.761 156.925 106.916  1.00  0.00    -0.313 N 
ENDROOT
BRANCH   1   2
ATOM      2  C   UNL     1     118.881 157.376 105.517  1.00  0.00     0.122 C 
ATOM      3  C   UNL     1     120.085 156.766 104.808  1.00  0.00     0.028 C 
ENDBRANCH   1   2
BRANCH   1   4
ATOM      4  C   UNL     1     118.184 155.673 107.215  1.00  0.00     0.223 C 
ATOM      5  O   UNL     1     118.542 154.919 108.123  1.00  0.00    -0.275 OA
ATOM      6  C   UNL     1     117.024 155.226 106.352  1.00  0.00     0.115 C 
ENDBRANCH   1   4
BRANCH   1   7
ATOM      7  C   UNL     1     119.179 157.839 107.965  1.00  0.00     0.044 A 
ATOM      8  C   UNL     1     120.384 158.553 107.889  1.00  0.00     0.026 A 
ATOM      9  C   UNL     1     118.376 158.081 109.098  1.00  0.00     0.036 A 
ATOM     10  C   UNL     1     120.788 159.431 108.901  1.00  0.00     0.003 A 
ATOM     11  C   UNL     1     118.761 158.965 110.125  1.00  0.00     0.002 A 
ATOM     12  C   UNL     1     119.985 159.632 110.017  1.00  0.00     0.010 A 
BRANCH  11  13
ATOM     13  C   UNL     1     117.885 159.184 111.298  1.00  0.00     0.076 C 
ATOM     14  C   UNL     1     117.238 160.360 111.417  1.00  0.00     0.049 C 
ATOM     15  N   UNL     1     117.687 158.194 112.283  1.00  0.00    -0.213 N 
ATOM     16  C   UNL     1     116.366 160.511 112.609  1.00  0.00     0.116 C 
ATOM     17  N   UNL     1     118.221 156.940 112.347  1.00  0.00    -0.173 NA
ATOM     18  C   UNL     1     116.840 158.437 113.379  1.00  0.00     0.173 A 
ATOM     19  N   UNL     1     116.171 159.622 113.534  1.00  0.00    -0.236 NA
ATOM     20  C   UNL     1     117.734 156.419 113.473  1.00  0.00     0.157 A 
ATOM     21  C   UNL     1     116.877 157.295 114.146  1.00  0.00     0.117 A 
ATOM     22  C   UNL     1     116.182 157.061 115.364  1.00  0.00     0.105 C 
ATOM     23  N   UNL     1     115.631 156.828 116.359  1.00  0.00    -0.192 NA
ENDBRANCH  11  13
ENDBRANCH   1   7
TORSDOF 4
ENDMDL
MODEL 2
REMARK VINA RESULT:    -8.741      2.229      6.913
REMARK INTER + INTRA:         -11.395
REMARK INTER:                 -10.847
REMARK INTRA:                  -0.548
REMARK UNBOUND:                -0.610
REMARK SMILES CCN(C(C)=O)c1cccc(-c2ccnc3c(C#N)cnn23)c1
REMARK SMILES IDX 3 1 2 2 1 3 4 4 6 5 5 6 7 7 8 8 23 9 9 10 11 11 10 12 12 13
REMARK SMILES IDX 13 14 22 15 14 16 21 17 16 18 15 19 20 20 17 21 18 22 19 23
REMARK H PARENT
ROOT
ATOM      1  N   UNL     1     117.011 156.452 113.407  1.00  0.00    -0.313 N 
ENDROOT
BRANCH   1   2
ATOM      2  C   UNL     1     117.459 155.183 112.802  1.00  0.00     0.122 C 
ATOM      3  C   UNL     1     117.776 154.119 113.847  1.00  0.00     0.028 C 
ENDBRANCH   1   2
BRANCH   1   4
ATOM      4  C   UNL     1     116.320 156.453 114.636  1.00  0.00     0.223 C 
ATOM      5  O   UNL     1     116.816 156.705 115.736  1.00  0.00    -0.275 OA
ATOM      6  C   UNL     1     114.843 156.124 114.594  1.00  0.00     0.115 C 
ENDBRANCH   1   4
BRANCH   1   7
ATOM      7  C   UNL     1     117.235 157.679 112.660  1.00  0.00     0.044 A 
ATOM      8  C   UNL     1     116.631 158.890 113.026  1.00  0.00     0.026 A 
ATOM      9  C   UNL     1     118.099 157.719 111.546  1.00  0.00     0.036 A 
ATOM     10  C   UNL     1     116.844 160.071 112.305  1.00  0.00     0.003 A 
ATOM     11  C   UNL     1     118.331 158.898 110.810  1.00  0.00     0.002 A 
ATOM     12  C   UNL     1     117.685 160.074 111.198  1.00  0.00     0.010 A 
BRANCH  11  13
ATOM     13  C   UNL     1     119.245 158.890 109.646  1.00  0.00     0.076 C 
ATOM     14  C   UNL     1     120.373 159.624 109.698  1.00  0.00     0.049 C 
ATOM     15  N   UNL     1     118.985 158.121 108.492  1.00  0.00    -0.213 N 
ATOM     16  C   UNL     1     121.251 159.563 108.503  1.00  0.00     0.116 C 
ATOM     17  N   UNL     1     117.925 157.298 108.240  1.00  0.00    -0.173 NA
ATOM     18  C   UNL     1     119.882 158.133 107.409  1.00  0.00     0.173 A 
ATOM     19  N   UNL     1     121.035 158.871 107.427  1.00  0.00    -0.236 NA
ATOM     20  C   UNL     1     118.146 156.825 107.013  1.00  0.00     0.157 A 
ATOM     21  C   UNL     1     119.336 157.302 106.456  1.00  0.00     0.117 A 
ATOM     22  C   UNL     1     119.879 156.996 105.179  1.00  0.00     0.105 C 
ATOM     23  N   UNL     1     120.286 156.718 104.128  1.00  0.00    -0.192 NA
ENDBRANCH  11  13
ENDBRANCH   1   7
TORSDOF 4
ENDMDL
MODEL 3
REMARK VINA RESULT:    -8.713      2.308      7.317
REMARK INTER + INTRA:         -11.360
REMARK INTER:                 -11.064
REMARK INTRA:                  -0.296
REMARK UNBOUND:                -0.610
REMARK SMILES CCN(C(C)=O)c1cccc(-c2ccnc3c(C#N)cnn23)c1
REMARK SMILES IDX 3 1 2 2 1 3 4 4 6 5 5 6 7 7 8 8 23 9 9 10 11 11 10 12 12 13
REMARK SMILES IDX 13 14 22 15 14 16 21 17 16 18 15 19 20 20 17 21 18 22 19 23
REMARK H PARENT
ROOT
ATOM      1  N   UNL     1     116.133 155.582 113.917  1.00  0.00    -0.313 N 
ENDROOT
BRANCH   1   2
ATOM      2  C   UNL     1     114.758 155.705 114.437  1.00  0.00     0.122 C 
ATOM      3  C   UNL     1     113.824 154.638 113.877  1.00  0.00     0.028 C 
ENDBRANCH   1   2
BRANCH   1   4
ATOM      4  C   UNL     1     117.012 154.615 114.446  1.00  0.00     0.223 C 
ATOM      5  O   UNL     1     117.941 154.082 113.834  1.00  0.00    -0.275 OA
ATOM      6  C   UNL     1     116.799 154.206 115.887  1.00  0.00     0.115 C 
ENDBRANCH   1   4
BRANCH   1   7
ATOM      7  C   UNL     1     116.567 156.534 112.909  1.00  0.00     0.044 A 
ATOM      8  C   UNL     1     116.926 157.849 113.238  1.00  0.00     0.026 A 
ATOM      9  C   UNL     1     116.683 156.173 111.552  1.00  0.00     0.036 A 
ATOM     10  C   UNL     1     117.341 158.768 112.267  1.00  0.00     0.003 A 
ATOM     11  C   UNL     1     117.104 157.080 110.559  1.00  0.00     0.002 A 
ATOM     12  C   UNL     1     117.424 158.388 110.933  1.00  0.00     0.010 A 
BRANCH  11  13
ATOM     13  C   UNL     1     117.206 156.654 109.145  1.00  0.00     0.076 C 
ATOM     14  C   UNL     1     116.220 155.902 108.619  1.00  0.00     0.049 C 
ATOM     15  N   UNL     1     118.290 157.028 108.324  1.00  0.00    -0.213 N 
ATOM     16  C   UNL     1     116.377 155.519 107.193  1.00  0.00     0.116 C 
ATOM     17  N   UNL     1     119.374 157.794 108.644  1.00  0.00    -0.173 NA
ATOM     18  C   UNL     1     118.347 156.610 106.982  1.00  0.00     0.173 A 
ATOM     19  N   UNL     1     117.365 155.842 106.416  1.00  0.00    -0.236 NA
ATOM     20  C   UNL     1     120.104 157.834 107.529  1.00  0.00     0.157 A 
ATOM     21  C   UNL     1     119.519 157.126 106.475  1.00  0.00     0.117 A 
ATOM     22  C   UNL     1     120.018 156.970 105.154  1.00  0.00     0.105 C 
ATOM     23  N   UNL     1     120.462 156.870 104.085  1.00  0.00    -0.192 NA
ENDBRANCH  11  13
ENDBRANCH   1   7
TORSDOF 4
ENDMDL
MODEL 4
REMARK VINA RESULT:    -8.693      1.700      3.079
REMARK INTER + INTRA:         -11.335
REMARK INTER:                 -10.818
REMARK INTRA:                  -0.517
REMARK UNBOUND:                -0.610
REMARK SMILES CCN(C(C)=O)c1cccc(-c2ccnc3c(C#N)cnn23)c1
REMARK SMILES IDX 3 1 2 2 1 3 4 4 6 5 5 6 7 7 8 8 23 9 9 10 11 11 10 12 12 13
REMARK SMILES IDX 13 14 22 15 14 16 21 17 16 18 15 19 20 20 17 21 18 22 19 23
REMARK H PARENT
ROOT
ATOM      1  N   UNL     1     118.419 156.601 107.637  1.00  0.00    -0.313 N 
ENDROOT
BRANCH   1   2
ATOM      2  C   UNL     1     117.842 155.248 107.527  1.00  0.00     0.122 C 
ATOM      3  C   UNL     1     116.852 155.128 106.373  1.00  0.00     0.028 C 
ENDBRANCH   1   2
BRANCH   1   4
ATOM      4  C   UNL     1     118.853 157.288 106.484  1.00  0.00     0.223 C 
ATOM      5  O   UNL     1     118.238 158.194 105.916  1.00  0.00    -0.275 OA
ATOM      6  C   UNL     1     120.191 156.881 105.904  1.00  0.00     0.115 C 
ENDBRANCH   1   4
BRANCH   1   7
ATOM      7  C   UNL     1     118.595 157.161 108.966  1.00  0.00     0.044 A 
ATOM      8  C   UNL     1     119.365 158.311 109.190  1.00  0.00     0.026 A 
ATOM      9  C   UNL     1     117.970 156.593 110.095  1.00  0.00     0.036 A 
ATOM     10  C   UNL     1     119.538 158.848 110.471  1.00  0.00     0.003 A 
ATOM     11  C   UNL     1     118.126 157.122 111.392  1.00  0.00     0.002 A 
ATOM     12  C   UNL     1     118.927 158.253 111.568  1.00  0.00     0.010 A 
BRANCH  11  13
ATOM     13  C   UNL     1     117.453 156.489 112.548  1.00  0.00     0.076 C 
ATOM     14  C   UNL     1     117.716 155.197 112.828  1.00  0.00     0.049 C 
ATOM     15  N   UNL     1     116.562 157.198 113.380  1.00  0.00    -0.213 N 
ATOM     16  C   UNL     1     117.017 154.626 114.007  1.00  0.00     0.116 C 
ATOM     17  N   UNL     1     116.174 158.504 113.292  1.00  0.00    -0.173 NA
ATOM     18  C   UNL     1     115.948 156.563 114.476  1.00  0.00     0.173 A 
ATOM     19  N   UNL     1     116.189 155.251 114.785  1.00  0.00    -0.236 NA
ATOM     20  C   UNL     1     115.317 158.673 114.300  1.00  0.00     0.157 A 
ATOM     21  C   UNL     1     115.143 157.514 115.061  1.00  0.00     0.117 A 
ATOM     22  C   UNL     1     114.315 157.345 116.204  1.00  0.00     0.105 C 
ATOM     23  N   UNL     1     113.627 157.251 117.135  1.00  0.00    -0.192 NA
ENDBRANCH  11  13
ENDBRANCH   1   7
TORSDOF 4
ENDMDL
MODEL 5
REMARK VINA RESULT:    -8.579      2.754      7.371
REMARK INTER + INTRA:         -11.194
REMARK INTER:                 -10.745
REMARK INTRA:                  -0.449
REMARK UNBOUND:                -0.610
REMARK SMILES CCN(C(C)=O)c1cccc(-c2ccnc3c(C#N)cnn23)c1
REMARK SMILES IDX 3 1 2 2 1 3 4 4 6 5 5 6 7 7 8 8 23 9 9 10 11 11 10 12 12 13
REMARK SMILES IDX 13 14 22 15 14 16 21 17 16 18 15 19 20 20 17 21 18 22 19 23
REMARK H PARENT
ROOT
ATOM      1  N   UNL     1     116.244 160.835 112.829  1.00  0.00    -0.313 N 
ENDROOT
BRANCH   1   2
ATOM      2  C   UNL     1     116.555 162.155 112.248  1.00  0.00     0.122 C 
ATOM      3  C   UNL     1     116.537 163.269 113.288  1.00  0.00     0.028 C 
ENDBRANCH   1   2
BRANCH   1   4
ATOM      4  C   UNL     1     115.288 160.715 113.858  1.00  0.00     0.223 C 
ATOM      5  O   UNL     1     115.538 160.492 115.045  1.00  0.00    -0.275 OA
ATOM      6  C   UNL     1     113.835 160.883 113.470  1.00  0.00     0.115 C 
ENDBRANCH   1   4
BRANCH   1   7
ATOM      7  C   UNL     1     117.008 159.689 112.363  1.00  0.00     0.044 A 
ATOM      8  C   UNL     1     116.973 158.456 113.029  1.00  0.00     0.026 A 
ATOM      9  C   UNL     1     117.796 159.752 111.197  1.00  0.00     0.036 A 
ATOM     10  C   UNL     1     117.710 157.354 112.583  1.00  0.00     0.003 A 
ATOM     11  C   UNL     1     118.542 158.652 110.727  1.00  0.00     0.002 A 
ATOM     12  C   UNL     1     118.497 157.452 111.441  1.00  0.00     0.010 A 
BRANCH  11  13
ATOM     13  C   UNL     1     119.358 158.767 109.498  1.00  0.00     0.076 C 
ATOM     14  C   UNL     1     120.441 159.569 109.508  1.00  0.00     0.049 C 
ATOM     15  N   UNL     1     119.055 158.046 108.324  1.00  0.00    -0.213 N 
ATOM     16  C   UNL     1     121.223 159.630 108.248  1.00  0.00     0.116 C 
ATOM     17  N   UNL     1     118.031 157.171 108.104  1.00  0.00    -0.173 NA
ATOM     18  C   UNL     1     119.861 158.175 107.178  1.00  0.00     0.173 A 
ATOM     19  N   UNL     1     120.965 158.985 107.152  1.00  0.00    -0.236 NA
ATOM     20  C   UNL     1     118.182 156.780 106.839  1.00  0.00     0.157 A 
ATOM     21  C   UNL     1     119.293 157.364 106.222  1.00  0.00     0.117 A 
ATOM     22  C   UNL     1     119.749 157.163 104.892  1.00  0.00     0.105 C 
ATOM     23  N   UNL     1     120.089 156.969 103.798  1.00  0.00    -0.192 NA
ENDBRANCH  11  13
ENDBRANCH   1   7
TORSDOF 4
ENDMDL
MODEL 6
REMARK VINA RESULT:    -8.486      2.587      4.321
REMARK INTER + INTRA:         -11.080
REMARK INTER:                 -10.974
REMARK INTRA:                  -0.105
REMARK UNBOUND:                -0.610
REMARK SMILES CCN(C(C)=O)c1cccc(-c2ccnc3c(C#N)cnn23)c1
REMARK SMILES IDX 3 1 2 2 1 3 4 4 6 5 5 6 7 7 8 8 23 9 9 10 11 11 10 12 12 13
REMARK SMILES IDX 13 14 22 15 14 16 21 17 16 18 15 19 20 20 17 21 18 22 19 23
REMARK H PARENT
ROOT
ATOM      1  N   UNL     1     121.520 160.675 108.345  1.00  0.00    -0.313 N 
ENDROOT
BRANCH   1   2
ATOM      2  C   UNL     1     122.808 160.458 107.661  1.00  0.00     0.122 C 
ATOM      3  C   UNL     1     122.776 160.898 106.202  1.00  0.00     0.028 C 
ENDBRANCH   1   2
BRANCH   1   4
ATOM      4  C   UNL     1     121.176 161.953 108.830  1.00  0.00     0.223 C 
ATOM      5  O   UNL     1     120.033 162.336 109.091  1.00  0.00    -0.275 OA
ATOM      6  C   UNL     1     122.309 162.931 109.057  1.00  0.00     0.115 C 
ENDBRANCH   1   4
BRANCH   1   7
ATOM      7  C   UNL     1     120.664 159.521 108.569  1.00  0.00     0.044 A 
ATOM      8  C   UNL     1     120.592 158.464 107.651  1.00  0.00     0.026 A 
ATOM      9  C   UNL     1     119.888 159.393 109.739  1.00  0.00     0.036 A 
ATOM     10  C   UNL     1     119.766 157.355 107.865  1.00  0.00     0.003 A 
ATOM     11  C   UNL     1     119.054 158.282 109.976  1.00  0.00     0.002 A 
ATOM     12  C   UNL     1     118.995 157.266 109.018  1.00  0.00     0.010 A 
BRANCH  11  13
ATOM     13  C   UNL     1     118.255 158.194 111.218  1.00  0.00     0.076 C 
ATOM     14  C   UNL     1     118.285 157.051 111.932  1.00  0.00     0.049 C 
ATOM     15  N   UNL     1     117.481 159.273 111.693  1.00  0.00    -0.213 N 
ATOM     16  C   UNL     1     117.471 157.032 113.173  1.00  0.00     0.116 C 
ATOM     17  N   UNL     1     117.326 160.514 111.145  1.00  0.00    -0.173 NA
ATOM     18  C   UNL     1     116.740 159.153 112.883  1.00  0.00     0.173 A 
ATOM     19  N   UNL     1     116.745 158.005 113.630  1.00  0.00    -0.236 NA
ATOM     20  C   UNL     1     116.487 161.147 111.965  1.00  0.00     0.157 A 
ATOM     21  C   UNL     1     116.098 160.358 113.052  1.00  0.00     0.117 A 
ATOM     22  C   UNL     1     115.227 160.719 114.116  1.00  0.00     0.105 C 
ATOM     23  N   UNL     1     114.511 161.056 114.966  1.00  0.00    -0.192 NA
ENDBRANCH  11  13
ENDBRANCH   1   7
TORSDOF 4
ENDMDL
MODEL 7
REMARK VINA RESULT:    -8.485      2.471      3.731
REMARK INTER + INTRA:         -11.079
REMARK INTER:                 -10.950
REMARK INTRA:                  -0.129
REMARK UNBOUND:                -0.610
REMARK SMILES CCN(C(C)=O)c1cccc(-c2ccnc3c(C#N)cnn23)c1
REMARK SMILES IDX 3 1 2 2 1 3 4 4 6 5 5 6 7 7 8 8 23 9 9 10 11 11 10 12 12 13
REMARK SMILES IDX 13 14 22 15 14 16 21 17 16 18 15 19 20 20 17 21 18 22 19 23
REMARK H PARENT
ROOT
ATOM      1  N   UNL     1     121.363 160.822 108.607  1.00  0.00    -0.313 N 
ENDROOT
BRANCH   1   2
ATOM      2  C   UNL     1     122.631 160.433 107.961  1.00  0.00     0.122 C 
ATOM      3  C   UNL     1     122.693 160.854 106.497  1.00  0.00     0.028 C 
ENDBRANCH   1   2
BRANCH   1   4
ATOM      4  C   UNL     1     121.111 162.171 108.930  1.00  0.00     0.223 C 
ATOM      5  O   UNL     1     119.996 162.694 108.997  1.00  0.00    -0.275 OA
ATOM      6  C   UNL     1     122.311 163.045 109.224  1.00  0.00     0.115 C 
ENDBRANCH   1   4
BRANCH   1   7
ATOM      7  C   UNL     1     120.431 159.767 108.968  1.00  0.00     0.044 A 
ATOM      8  C   UNL     1     120.363 158.562 108.253  1.00  0.00     0.026 A 
ATOM      9  C   UNL     1     119.569 159.889 110.076  1.00  0.00     0.036 A 
ATOM     10  C   UNL     1     119.463 157.548 108.598  1.00  0.00     0.003 A 
ATOM     11  C   UNL     1     118.660 158.878 110.444  1.00  0.00     0.002 A 
ATOM     12  C   UNL     1     118.610 157.706 109.684  1.00  0.00     0.010 A 
BRANCH  11  13
ATOM     13  C   UNL     1     117.772 159.053 111.615  1.00  0.00     0.076 C 
ATOM     14  C   UNL     1     117.008 160.161 111.693  1.00  0.00     0.049 C 
ATOM     15  N   UNL     1     117.682 158.090 112.641  1.00  0.00    -0.213 N 
ATOM     16  C   UNL     1     116.132 160.270 112.887  1.00  0.00     0.116 C 
ATOM     17  N   UNL     1     118.342 156.900 112.751  1.00  0.00    -0.173 NA
ATOM     18  C   UNL     1     116.820 158.289 113.735  1.00  0.00     0.173 A 
ATOM     19  N   UNL     1     116.033 159.405 113.848  1.00  0.00    -0.236 NA
ATOM     20  C   UNL     1     117.917 156.379 113.902  1.00  0.00     0.157 A 
ATOM     21  C   UNL     1     116.978 157.189 114.547  1.00  0.00     0.117 A 
ATOM     22  C   UNL     1     116.317 156.935 115.779  1.00  0.00     0.105 C 
ATOM     23  N   UNL     1     115.798 156.688 116.788  1.00  0.00    -0.192 NA
ENDBRANCH  11  13
ENDBRANCH   1   7
TORSDOF 4
ENDMDL
MODEL 8
REMARK VINA RESULT:    -8.440      2.061      3.283
REMARK INTER + INTRA:         -11.023
REMARK INTER:                 -11.062
REMARK INTRA:                   0.040
REMARK UNBOUND:                -0.610
REMARK SMILES CCN(C(C)=O)c1cccc(-c2ccnc3c(C#N)cnn23)c1
REMARK SMILES IDX 3 1 2 2 1 3 4 4 6 5 5 6 7 7 8 8 23 9 9 10 11 11 10 12 12 13
REMARK SMILES IDX 13 14 22 15 14 16 21 17 16 18 15 19 20 20 17 21 18 22 19 23
REMARK H PARENT
ROOT
ATOM      1  N   UNL     1     119.758 158.346 108.481  1.00  0.00    -0.313 N 
ENDROOT
BRANCH   1   2
ATOM      2  C   UNL     1     120.405 159.410 109.272  1.00  0.00     0.122 C 
ATOM      3  C   UNL     1     121.477 160.154 108.484  1.00  0.00     0.028 C 
ENDBRANCH   1   2
BRANCH   1   4
ATOM      4  C   UNL     1     119.904 158.311 107.079  1.00  0.00     0.223 C 
ATOM      5  O   UNL     1     119.332 159.056 106.280  1.00  0.00    -0.275 OA
ATOM      6  C   UNL     1     120.850 157.273 106.512  1.00  0.00     0.115 C 
ENDBRANCH   1   4
BRANCH   1   7
ATOM      7  C   UNL     1     118.910 157.396 109.181  1.00  0.00     0.044 A 
ATOM      8  C   UNL     1     118.540 156.171 108.607  1.00  0.00     0.026 A 
ATOM      9  C   UNL     1     118.445 157.644 110.488  1.00  0.00     0.036 A 
ATOM     10  C   UNL     1     117.721 155.257 109.280  1.00  0.00     0.003 A 
ATOM     11  C   UNL     1     117.624 156.735 111.185  1.00  0.00     0.002 A 
ATOM     12  C   UNL     1     117.259 155.539 110.560  1.00  0.00     0.010 A 
BRANCH  11  13
ATOM     13  C   UNL     1     117.157 157.041 112.555  1.00  0.00     0.076 C 
ATOM     14  C   UNL     1     116.792 158.304 112.852  1.00  0.00     0.049 C 
ATOM     15  N   UNL     1     117.059 156.051 113.555  1.00  0.00    -0.213 N 
ATOM     16  C   UNL     1     116.322 158.542 114.240  1.00  0.00     0.116 C 
ATOM     17  N   UNL     1     117.352 154.721 113.466  1.00  0.00    -0.173 NA
ATOM     18  C   UNL     1     116.602 156.380 114.844  1.00  0.00     0.173 A 
ATOM     19  N   UNL     1     116.227 157.654 115.181  1.00  0.00    -0.236 NA
ATOM     20  C   UNL     1     117.105 154.235 114.682  1.00  0.00     0.157 A 
ATOM     21  C   UNL     1     116.638 155.210 115.569  1.00  0.00     0.117 A 
ATOM     22  C   UNL     1     116.272 155.038 116.931  1.00  0.00     0.105 C 
ATOM     23  N   UNL     1     115.981 154.852 118.040  1.00  0.00    -0.192 NA
ENDBRANCH  11  13
ENDBRANCH   1   7
TORSDOF 4
ENDMDL
MODEL 9
REMARK VINA RESULT:    -8.255      1.628      2.048
REMARK INTER + INTRA:         -10.795
REMARK INTER:                 -10.666
REMARK INTRA:                  -0.129
REMARK UNBOUND:                -0.610
REMARK SMILES CCN(C(C)=O)c1cccc(-c2ccnc3c(C#N)cnn23)c1
REMARK SMILES IDX 3 1 2 2 1 3 4 4 6 5 5 6 7 7 8 8 23 9 9 10 11 11 10 12 12 13
REMARK SMILES IDX 13 14 22 15 14 16 21 17 16 18 15 19 20 20 17 21 18 22 19 23
REMARK H PARENT
ROOT
ATOM      1  N   UNL     1     118.002 156.520 107.725  1.00  0.00    -0.313 N 
ENDROOT
BRANCH   1   2
ATOM      2  C   UNL     1     118.999 156.324 106.656  1.00  0.00     0.122 C 
ATOM      3  C   UNL     1     118.898 157.382 105.563  1.00  0.00     0.028 C 
ENDBRANCH   1   2
BRANCH   1   4
ATOM      4  C   UNL     1     116.681 156.053 107.563  1.00  0.00     0.223 C 
ATOM      5  O   UNL     1     115.683 156.524 108.113  1.00  0.00    -0.275 OA
ATOM      6  C   UNL     1     116.476 154.879 106.630  1.00  0.00     0.115 C 
ENDBRANCH   1   4
BRANCH   1   7
ATOM      7  C   UNL     1     118.403 157.273 108.901  1.00  0.00     0.044 A 
ATOM      8  C   UNL     1     119.470 158.183 108.870  1.00  0.00     0.026 A 
ATOM      9  C   UNL     1     117.718 157.149 110.127  1.00  0.00     0.036 A 
ATOM     10  C   UNL     1     119.858 158.905 110.004  1.00  0.00     0.003 A 
ATOM     11  C   UNL     1     118.089 157.872 111.278  1.00  0.00     0.002 A 
ATOM     12  C   UNL     1     119.176 158.746 111.205  1.00  0.00     0.010 A 
BRANCH  11  13
ATOM     13  C   UNL     1     117.340 157.706 112.544  1.00  0.00     0.076 C 
ATOM     14  C   UNL     1     116.694 158.769 113.062  1.00  0.00     0.049 C 
ATOM     15  N   UNL     1     117.262 156.467 113.214  1.00  0.00    -0.213 N 
ATOM     16  C   UNL     1     115.952 158.533 114.327  1.00  0.00     0.116 C 
ATOM     17  N   UNL     1     117.816 155.272 112.859  1.00  0.00    -0.173 NA
ATOM     18  C   UNL     1     116.532 156.348 114.412  1.00  0.00     0.173 A 
ATOM     19  N   UNL     1     115.868 157.409 114.968  1.00  0.00    -0.236 NA
ATOM     20  C   UNL     1     117.458 154.429 113.828  1.00  0.00     0.157 A 
ATOM     21  C   UNL     1     116.666 155.036 114.807  1.00  0.00     0.117 A 
ATOM     22  C   UNL     1     116.108 154.433 115.966  1.00  0.00     0.105 C 
ATOM     23  N   UNL     1     115.670 153.900 116.900  1.00  0.00    -0.192 NA
ENDBRANCH  11  13
ENDBRANCH   1   7
TORSDOF 4
ENDMDL
