MODEL 1
REMARK VINA RESULT:   -10.348      0.000      0.000
REMARK INTER + INTRA:         -12.708
REMARK INTER:                 -12.163
REMARK INTRA:                  -0.545
REMARK UNBOUND:                -0.545
REMARK SMILES Cc1ccc(-c2nc3ccc(C)cn3c2CC(=O)N(C)C)cc1
REMARK SMILES IDX 6 1 7 2 8 3 9 4 10 5 11 6 12 7 13 8 14 9 15 10 5 11 2 12
REMARK SMILES IDX 3 13 23 14 4 15 22 16 1 17 16 18 17 19 18 20 19 21 20 22
REMARK SMILES IDX 21 23
REMARK H PARENT
ROOT
ATOM      1  C   UNL     1     119.261 158.153 107.542  1.00  0.00     0.093 A 
ATOM      2  N   UNL     1     119.863 158.527 106.366  1.00  0.00    -0.228 NA
ATOM      3  C   UNL     1     120.798 159.384 106.708  1.00  0.00     0.137 A 
ATOM      4  C   UNL     1     121.716 160.123 105.910  1.00  0.00     0.048 C 
ATOM      5  C   UNL     1     122.571 160.983 106.493  1.00  0.00     0.009 C 
ATOM      6  C   UNL     1     122.588 161.183 107.939  1.00  0.00    -0.034 C 
ATOM      7  C   UNL     1     123.565 162.166 108.502  1.00  0.00     0.046 C 
ATOM      8  C   UNL     1     121.726 160.473 108.693  1.00  0.00     0.096 C 
ATOM      9  N   UNL     1     120.846 159.572 108.086  1.00  0.00    -0.303 N 
ATOM     10  C   UNL     1     119.893 158.725 108.638  1.00  0.00     0.060 A 
ENDROOT
BRANCH   1  11
ATOM     11  C   UNL     1     118.143 157.229 107.558  1.00  0.00     0.002 A 
ATOM     12  C   UNL     1     115.995 155.408 107.543  1.00  0.00    -0.051 A 
ATOM     13  C   UNL     1     117.114 155.190 106.732  1.00  0.00     0.004 A 
ATOM     14  C   UNL     1     115.959 156.542 108.363  1.00  0.00     0.004 A 
ATOM     15  C   UNL     1     118.174 156.101 106.732  1.00  0.00     0.011 A 
ATOM     16  C   UNL     1     117.020 157.451 108.362  1.00  0.00     0.011 A 
ATOM     17  C   UNL     1     114.868 154.417 107.566  1.00  0.00     0.044 C 
ENDBRANCH   1  11
BRANCH  10  18
ATOM     18  C   UNL     1     119.689 158.556 110.111  1.00  0.00     0.157 C 
BRANCH  18  19
ATOM     19  C   UNL     1     118.681 159.564 110.662  1.00  0.00     0.228 C 
ATOM     20  O   UNL     1     118.791 160.753 110.346  1.00  0.00    -0.274 OA
ATOM     21  N   UNL     1     117.669 159.122 111.504  1.00  0.00    -0.348 N 
ATOM     22  C   UNL     1     117.449 157.739 111.894  1.00  0.00     0.146 C 
ATOM     23  C   UNL     1     116.806 160.104 112.142  1.00  0.00     0.146 C 
ENDBRANCH  18  19
ENDBRANCH  10  18
TORSDOF 3
ENDMDL
MODEL 2
REMARK VINA RESULT:    -9.277      2.591      4.876
REMARK INTER + INTRA:         -11.449
REMARK INTER:                 -11.134
REMARK INTRA:                  -0.315
REMARK UNBOUND:                -0.545
REMARK SMILES Cc1ccc(-c2nc3ccc(C)cn3c2CC(=O)N(C)C)cc1
REMARK SMILES IDX 6 1 7 2 8 3 9 4 10 5 11 6 12 7 13 8 14 9 15 10 5 11 2 12
REMARK SMILES IDX 3 13 23 14 4 15 22 16 1 17 16 18 17 19 18 20 19 21 20 22
REMARK SMILES IDX 21 23
REMARK H PARENT
ROOT
ATOM      1  C   UNL     1     117.433 156.153 110.544  1.00  0.00     0.093 A 
ATOM      2  N   UNL     1     117.019 155.381 109.486  1.00  0.00    -0.228 NA
ATOM      3  C   UNL     1     117.644 155.862 108.437  1.00  0.00     0.137 A 
ATOM      4  C   UNL     1     117.582 155.483 107.066  1.00  0.00     0.048 C 
ATOM      5  C   UNL     1     118.300 156.159 106.150  1.00  0.00     0.009 C 
ATOM      6  C   UNL     1     119.153 157.283 106.523  1.00  0.00    -0.034 C 
ATOM      7  C   UNL     1     119.908 157.983 105.438  1.00  0.00     0.046 C 
ATOM      8  C   UNL     1     119.218 157.632 107.823  1.00  0.00     0.096 C 
ATOM      9  N   UNL     1     118.481 156.922 108.775  1.00  0.00    -0.303 N 
ATOM     10  C   UNL     1     118.397 157.072 110.153  1.00  0.00     0.060 A 
ENDROOT
BRANCH   1  11
ATOM     11  C   UNL     1     116.919 155.937 111.883  1.00  0.00     0.002 A 
ATOM     12  C   UNL     1     115.974 155.503 114.501  1.00  0.00    -0.051 A 
ATOM     13  C   UNL     1     117.347 155.499 114.234  1.00  0.00     0.004 A 
ATOM     14  C   UNL     1     115.076 155.728 113.450  1.00  0.00     0.004 A 
ATOM     15  C   UNL     1     117.814 155.702 112.932  1.00  0.00     0.011 A 
ATOM     16  C   UNL     1     115.545 155.933 112.149  1.00  0.00     0.011 A 
ATOM     17  C   UNL     1     115.472 155.312 115.902  1.00  0.00     0.044 C 
ENDBRANCH   1  11
BRANCH  10  18
ATOM     18  C   UNL     1     119.221 158.051 110.931  1.00  0.00     0.157 C 
BRANCH  18  19
ATOM     19  C   UNL     1     118.776 159.491 110.679  1.00  0.00     0.228 C 
ATOM     20  O   UNL     1     119.344 160.147 109.800  1.00  0.00    -0.274 OA
ATOM     21  N   UNL     1     117.747 160.028 111.441  1.00  0.00    -0.348 N 
ATOM     22  C   UNL     1     117.004 159.313 112.467  1.00  0.00     0.146 C 
ATOM     23  C   UNL     1     117.430 161.440 111.300  1.00  0.00     0.146 C 
ENDBRANCH  18  19
ENDBRANCH  10  18
TORSDOF 3
ENDMDL
MODEL 3
REMARK VINA RESULT:    -9.144      1.834      5.107
REMARK INTER + INTRA:         -11.293
REMARK INTER:                 -10.446
REMARK INTRA:                  -0.847
REMARK UNBOUND:                -0.545
REMARK SMILES Cc1ccc(-c2nc3ccc(C)cn3c2CC(=O)N(C)C)cc1
REMARK SMILES IDX 6 1 7 2 8 3 9 4 10 5 11 6 12 7 13 8 14 9 15 10 5 11 2 12
REMARK SMILES IDX 3 13 23 14 4 15 22 16 1 17 16 18 17 19 18 20 19 21 20 22
REMARK SMILES IDX 21 23
REMARK H PARENT
ROOT
ATOM      1  C   UNL     1     117.971 157.347 109.975  1.00  0.00     0.093 A 
ATOM      2  N   UNL     1     117.199 156.585 109.132  1.00  0.00    -0.228 NA
ATOM      3  C   UNL     1     117.797 156.639 107.965  1.00  0.00     0.137 A 
ATOM      4  C   UNL     1     117.438 156.070 106.711  1.00  0.00     0.048 C 
ATOM      5  C   UNL     1     118.203 156.296 105.627  1.00  0.00     0.009 C 
ATOM      6  C   UNL     1     119.407 157.119 105.698  1.00  0.00    -0.034 C 
ATOM      7  C   UNL     1     120.192 157.326 104.442  1.00  0.00     0.046 C 
ATOM      8  C   UNL     1     119.751 157.646 106.889  1.00  0.00     0.096 C 
ATOM      9  N   UNL     1     118.962 157.400 108.017  1.00  0.00    -0.303 N 
ATOM     10  C   UNL     1     119.114 157.808 109.336  1.00  0.00     0.060 A 
ENDROOT
BRANCH   1  11
ATOM     11  C   UNL     1     117.599 157.551 111.362  1.00  0.00     0.002 A 
ATOM     12  C   UNL     1     116.885 157.894 114.065  1.00  0.00    -0.051 A 
ATOM     13  C   UNL     1     117.476 156.701 113.634  1.00  0.00     0.004 A 
ATOM     14  C   UNL     1     116.657 158.915 113.136  1.00  0.00     0.004 A 
ATOM     15  C   UNL     1     117.818 156.528 112.290  1.00  0.00     0.011 A 
ATOM     16  C   UNL     1     117.000 158.741 111.792  1.00  0.00     0.011 A 
ATOM     17  C   UNL     1     116.543 158.092 115.512  1.00  0.00     0.044 C 
ENDBRANCH   1  11
BRANCH  10  18
ATOM     18  C   UNL     1     120.298 158.576 109.834  1.00  0.00     0.157 C 
BRANCH  18  19
ATOM     19  C   UNL     1     120.145 160.076 109.588  1.00  0.00     0.228 C 
ATOM     20  O   UNL     1     119.190 160.671 110.099  1.00  0.00    -0.274 OA
ATOM     21  N   UNL     1     121.077 160.734 108.797  1.00  0.00    -0.348 N 
ATOM     22  C   UNL     1     122.246 160.115 108.191  1.00  0.00     0.146 C 
ATOM     23  C   UNL     1     120.844 162.125 108.444  1.00  0.00     0.146 C 
ENDBRANCH  18  19
ENDBRANCH  10  18
TORSDOF 3
ENDMDL
MODEL 4
REMARK VINA RESULT:    -8.544      3.076      6.447
REMARK INTER + INTRA:         -10.587
REMARK INTER:                  -9.977
REMARK INTRA:                  -0.610
REMARK UNBOUND:                -0.545
REMARK SMILES Cc1ccc(-c2nc3ccc(C)cn3c2CC(=O)N(C)C)cc1
REMARK SMILES IDX 6 1 7 2 8 3 9 4 10 5 11 6 12 7 13 8 14 9 15 10 5 11 2 12
REMARK SMILES IDX 3 13 23 14 4 15 22 16 1 17 16 18 17 19 18 20 19 21 20 22
REMARK SMILES IDX 21 23
REMARK H PARENT
ROOT
ATOM      1  C   UNL     1     117.698 159.045 111.179  1.00  0.00     0.093 A 
ATOM      2  N   UNL     1     117.277 160.350 111.247  1.00  0.00    -0.228 NA
ATOM      3  C   UNL     1     116.586 160.437 112.360  1.00  0.00     0.137 A 
ATOM      4  C   UNL     1     115.885 161.534 112.934  1.00  0.00     0.048 C 
ATOM      5  C   UNL     1     115.206 161.371 114.084  1.00  0.00     0.009 C 
ATOM      6  C   UNL     1     115.168 160.084 114.773  1.00  0.00    -0.034 C 
ATOM      7  C   UNL     1     114.381 159.989 116.042  1.00  0.00     0.046 C 
ATOM      8  C   UNL     1     115.842 159.050 114.234  1.00  0.00     0.096 C 
ATOM      9  N   UNL     1     116.555 159.225 113.045  1.00  0.00    -0.303 N 
ATOM     10  C   UNL     1     117.331 158.334 112.314  1.00  0.00     0.060 A 
ENDROOT
BRANCH   1  11
ATOM     11  C   UNL     1     118.472 158.559 110.052  1.00  0.00     0.002 A 
ATOM     12  C   UNL     1     120.008 157.662 107.868  1.00  0.00    -0.051 A 
ATOM     13  C   UNL     1     120.434 158.752 108.633  1.00  0.00     0.004 A 
ATOM     14  C   UNL     1     118.809 157.021 108.204  1.00  0.00     0.004 A 
ATOM     15  C   UNL     1     119.665 159.204 109.709  1.00  0.00     0.011 A 
ATOM     16  C   UNL     1     118.041 157.473 109.281  1.00  0.00     0.011 A 
ATOM     17  C   UNL     1     120.845 157.158 106.730  1.00  0.00     0.044 C 
ENDBRANCH   1  11
BRANCH  10  18
ATOM     18  C   UNL     1     117.632 156.938 112.761  1.00  0.00     0.157 C 
BRANCH  18  19
ATOM     19  C   UNL     1     116.367 156.084 112.839  1.00  0.00     0.228 C 
ATOM     20  O   UNL     1     115.682 155.936 111.821  1.00  0.00    -0.274 OA
ATOM     21  N   UNL     1     116.016 155.497 114.047  1.00  0.00    -0.348 N 
ATOM     22  C   UNL     1     116.786 155.592 115.278  1.00  0.00     0.146 C 
ATOM     23  C   UNL     1     114.737 154.813 114.153  1.00  0.00     0.146 C 
ENDBRANCH  18  19
ENDBRANCH  10  18
TORSDOF 3
ENDMDL
MODEL 5
REMARK VINA RESULT:    -8.504      2.465      5.236
REMARK INTER + INTRA:         -10.540
REMARK INTER:                  -9.823
REMARK INTRA:                  -0.717
REMARK UNBOUND:                -0.545
REMARK SMILES Cc1ccc(-c2nc3ccc(C)cn3c2CC(=O)N(C)C)cc1
REMARK SMILES IDX 6 1 7 2 8 3 9 4 10 5 11 6 12 7 13 8 14 9 15 10 5 11 2 12
REMARK SMILES IDX 3 13 23 14 4 15 22 16 1 17 16 18 17 19 18 20 19 21 20 22
REMARK SMILES IDX 21 23
REMARK H PARENT
ROOT
ATOM      1  C   UNL     1     118.654 157.874 110.681  1.00  0.00     0.093 A 
ATOM      2  N   UNL     1     119.341 158.981 110.247  1.00  0.00    -0.228 NA
ATOM      3  C   UNL     1     119.714 158.702 109.020  1.00  0.00     0.137 A 
ATOM      4  C   UNL     1     120.480 159.458 108.088  1.00  0.00     0.048 C 
ATOM      5  C   UNL     1     120.771 158.939 106.881  1.00  0.00     0.009 C 
ATOM      6  C   UNL     1     120.320 157.607 106.491  1.00  0.00    -0.034 C 
ATOM      7  C   UNL     1     120.698 157.106 105.134  1.00  0.00     0.046 C 
ATOM      8  C   UNL     1     119.585 156.898 107.371  1.00  0.00     0.096 C 
ATOM      9  N   UNL     1     119.273 157.443 108.619  1.00  0.00    -0.303 N 
ATOM     10  C   UNL     1     118.528 156.928 109.673  1.00  0.00     0.060 A 
ENDROOT
BRANCH   1  11
ATOM     11  C   UNL     1     118.112 157.800 112.025  1.00  0.00     0.002 A 
ATOM     12  C   UNL     1     117.034 157.709 114.626  1.00  0.00    -0.051 A 
ATOM     13  C   UNL     1     116.615 158.688 113.719  1.00  0.00     0.004 A 
ATOM     14  C   UNL     1     117.995 156.774 114.222  1.00  0.00     0.004 A 
ATOM     15  C   UNL     1     117.159 158.740 112.433  1.00  0.00     0.011 A 
ATOM     16  C   UNL     1     118.538 156.826 112.934  1.00  0.00     0.011 A 
ATOM     17  C   UNL     1     116.431 157.634 115.997  1.00  0.00     0.044 C 
ENDBRANCH   1  11
BRANCH  10  18
ATOM     18  C   UNL     1     117.796 155.624 109.610  1.00  0.00     0.157 C 
BRANCH  18  19
ATOM     19  C   UNL     1     116.282 155.825 109.590  1.00  0.00     0.228 C 
ATOM     20  O   UNL     1     115.709 156.154 110.634  1.00  0.00    -0.274 OA
ATOM     21  N   UNL     1     115.586 155.635 108.404  1.00  0.00    -0.348 N 
ATOM     22  C   UNL     1     116.189 155.285 107.127  1.00  0.00     0.146 C 
ATOM     23  C   UNL     1     114.133 155.681 108.424  1.00  0.00     0.146 C 
ENDBRANCH  18  19
ENDBRANCH  10  18
TORSDOF 3
ENDMDL
MODEL 6
REMARK VINA RESULT:    -8.486      2.657      7.505
REMARK INTER + INTRA:         -10.519
REMARK INTER:                 -10.078
REMARK INTRA:                  -0.441
REMARK UNBOUND:                -0.545
REMARK SMILES Cc1ccc(-c2nc3ccc(C)cn3c2CC(=O)N(C)C)cc1
REMARK SMILES IDX 6 1 7 2 8 3 9 4 10 5 11 6 12 7 13 8 14 9 15 10 5 11 2 12
REMARK SMILES IDX 3 13 23 14 4 15 22 16 1 17 16 18 17 19 18 20 19 21 20 22
REMARK SMILES IDX 21 23
REMARK H PARENT
ROOT
ATOM      1  C   UNL     1     117.660 158.315 111.718  1.00  0.00     0.093 A 
ATOM      2  N   UNL     1     117.088 158.866 112.838  1.00  0.00    -0.228 NA
ATOM      3  C   UNL     1     116.288 157.941 113.314  1.00  0.00     0.137 A 
ATOM      4  C   UNL     1     115.415 157.958 114.438  1.00  0.00     0.048 C 
ATOM      5  C   UNL     1     114.652 156.883 114.712  1.00  0.00     0.009 C 
ATOM      6  C   UNL     1     114.695 155.683 113.882  1.00  0.00    -0.034 C 
ATOM      7  C   UNL     1     113.807 154.538 114.254  1.00  0.00     0.046 C 
ATOM      8  C   UNL     1     115.531 155.665 112.826  1.00  0.00     0.096 C 
ATOM      9  N   UNL     1     116.330 156.778 112.549  1.00  0.00    -0.303 N 
ATOM     10  C   UNL     1     117.270 156.994 111.549  1.00  0.00     0.060 A 
ENDROOT
BRANCH   1  11
ATOM     11  C   UNL     1     118.588 159.068 110.896  1.00  0.00     0.002 A 
ATOM     12  C   UNL     1     120.361 160.577 109.310  1.00  0.00    -0.051 A 
ATOM     13  C   UNL     1     119.394 161.214 110.095  1.00  0.00     0.004 A 
ATOM     14  C   UNL     1     120.436 159.179 109.325  1.00  0.00     0.004 A 
ATOM     15  C   UNL     1     118.508 160.464 110.872  1.00  0.00     0.011 A 
ATOM     16  C   UNL     1     119.549 158.429 110.104  1.00  0.00     0.011 A 
ATOM     17  C   UNL     1     121.331 161.381 108.496  1.00  0.00     0.044 C 
ENDBRANCH   1  11
BRANCH  10  18
ATOM     18  C   UNL     1     117.684 155.947 110.562  1.00  0.00     0.157 C 
BRANCH  18  19
ATOM     19  C   UNL     1     116.829 155.993 109.296  1.00  0.00     0.228 C 
ATOM     20  O   UNL     1     115.616 156.201 109.401  1.00  0.00    -0.274 OA
ATOM     21  N   UNL     1     117.433 155.800 108.061  1.00  0.00    -0.348 N 
ATOM     22  C   UNL     1     118.856 155.586 107.849  1.00  0.00     0.146 C 
ATOM     23  C   UNL     1     116.596 155.696 106.876  1.00  0.00     0.146 C 
ENDBRANCH  18  19
ENDBRANCH  10  18
TORSDOF 3
ENDMDL
MODEL 7
REMARK VINA RESULT:    -8.307      2.972      6.608
REMARK INTER + INTRA:         -10.309
REMARK INTER:                  -9.712
REMARK INTRA:                  -0.597
REMARK UNBOUND:                -0.545
REMARK SMILES Cc1ccc(-c2nc3ccc(C)cn3c2CC(=O)N(C)C)cc1
REMARK SMILES IDX 6 1 7 2 8 3 9 4 10 5 11 6 12 7 13 8 14 9 15 10 5 11 2 12
REMARK SMILES IDX 3 13 23 14 4 15 22 16 1 17 16 18 17 19 18 20 19 21 20 22
REMARK SMILES IDX 21 23
REMARK H PARENT
ROOT
ATOM      1  C   UNL     1     118.056 157.951 111.714  1.00  0.00     0.093 A 
ATOM      2  N   UNL     1     118.368 156.964 112.616  1.00  0.00    -0.228 NA
ATOM      3  C   UNL     1     117.586 157.174 113.649  1.00  0.00     0.137 A 
ATOM      4  C   UNL     1     117.488 156.489 114.892  1.00  0.00     0.048 C 
ATOM      5  C   UNL     1     116.621 156.917 115.828  1.00  0.00     0.009 C 
ATOM      6  C   UNL     1     115.765 158.079 115.604  1.00  0.00    -0.034 C 
ATOM      7  C   UNL     1     114.838 158.492 116.703  1.00  0.00     0.046 C 
ATOM      8  C   UNL     1     115.853 158.718 114.422  1.00  0.00     0.096 C 
ATOM      9  N   UNL     1     116.745 158.265 113.446  1.00  0.00    -0.303 N 
ATOM     10  C   UNL     1     117.001 158.733 112.164  1.00  0.00     0.060 A 
ENDROOT
BRANCH   1  11
ATOM     11  C   UNL     1     118.751 158.063 110.445  1.00  0.00     0.002 A 
ATOM     12  C   UNL     1     120.082 158.229 107.968  1.00  0.00    -0.051 A 
ATOM     13  C   UNL     1     119.145 157.217 108.203  1.00  0.00     0.004 A 
ATOM     14  C   UNL     1     120.347 159.159 108.980  1.00  0.00     0.004 A 
ATOM     15  C   UNL     1     118.495 157.128 109.436  1.00  0.00     0.011 A 
ATOM     16  C   UNL     1     119.695 159.070 110.214  1.00  0.00     0.011 A 
ATOM     17  C   UNL     1     120.760 158.342 106.635  1.00  0.00     0.044 C 
ENDBRANCH   1  11
BRANCH  10  18
ATOM     18  C   UNL     1     116.236 159.847 111.521  1.00  0.00     0.157 C 
BRANCH  18  19
ATOM     19  C   UNL     1     116.830 161.213 111.864  1.00  0.00     0.228 C 
ATOM     20  O   UNL     1     117.874 161.567 111.306  1.00  0.00    -0.274 OA
ATOM     21  N   UNL     1     116.186 162.021 112.792  1.00  0.00    -0.348 N 
ATOM     22  C   UNL     1     114.938 161.694 113.463  1.00  0.00     0.146 C 
ATOM     23  C   UNL     1     116.833 163.250 113.224  1.00  0.00     0.146 C 
ENDBRANCH  18  19
ENDBRANCH  10  18
TORSDOF 3
ENDMDL
MODEL 8
REMARK VINA RESULT:    -8.158      4.520      8.369
REMARK INTER + INTRA:         -10.134
REMARK INTER:                  -9.683
REMARK INTRA:                  -0.452
REMARK UNBOUND:                -0.545
REMARK SMILES Cc1ccc(-c2nc3ccc(C)cn3c2CC(=O)N(C)C)cc1
REMARK SMILES IDX 6 1 7 2 8 3 9 4 10 5 11 6 12 7 13 8 14 9 15 10 5 11 2 12
REMARK SMILES IDX 3 13 23 14 4 15 22 16 1 17 16 18 17 19 18 20 19 21 20 22
REMARK SMILES IDX 21 23
REMARK H PARENT
ROOT
ATOM      1  C   UNL     1     117.366 155.831 113.606  1.00  0.00     0.093 A 
ATOM      2  N   UNL     1     117.480 154.508 113.956  1.00  0.00    -0.228 NA
ATOM      3  C   UNL     1     117.084 154.441 115.206  1.00  0.00     0.137 A 
ATOM      4  C   UNL     1     117.017 153.336 116.100  1.00  0.00     0.048 C 
ATOM      5  C   UNL     1     116.604 153.522 117.368  1.00  0.00     0.009 C 
ATOM      6  C   UNL     1     116.217 154.841 117.861  1.00  0.00    -0.034 C 
ATOM      7  C   UNL     1     115.781 154.958 119.287  1.00  0.00     0.046 C 
ATOM      8  C   UNL     1     116.271 155.883 117.009  1.00  0.00     0.096 C 
ATOM      9  N   UNL     1     116.688 155.685 115.690  1.00  0.00    -0.303 N 
ATOM     10  C   UNL     1     116.808 156.580 114.633  1.00  0.00     0.060 A 
ENDROOT
BRANCH   1  11
ATOM     11  C   UNL     1     117.752 156.299 112.289  1.00  0.00     0.002 A 
ATOM     12  C   UNL     1     118.517 157.259 109.753  1.00  0.00    -0.051 A 
ATOM     13  C   UNL     1     118.840 157.977 110.910  1.00  0.00     0.004 A 
ATOM     14  C   UNL     1     117.811 156.056 109.874  1.00  0.00     0.004 A 
ATOM     15  C   UNL     1     118.449 157.506 112.166  1.00  0.00     0.011 A 
ATOM     16  C   UNL     1     117.422 155.586 111.132  1.00  0.00     0.011 A 
ATOM     17  C   UNL     1     118.959 157.749 108.406  1.00  0.00     0.044 C 
ENDBRANCH   1  11
BRANCH  10  18
ATOM     18  C   UNL     1     116.391 158.015 114.713  1.00  0.00     0.157 C 
BRANCH  18  19
ATOM     19  C   UNL     1     114.874 158.170 114.608  1.00  0.00     0.228 C 
ATOM     20  O   UNL     1     114.182 157.164 114.427  1.00  0.00    -0.274 OA
ATOM     21  N   UNL     1     114.311 159.435 114.717  1.00  0.00    -0.348 N 
ATOM     22  C   UNL     1     115.051 160.662 114.967  1.00  0.00     0.146 C 
ATOM     23  C   UNL     1     112.887 159.595 114.469  1.00  0.00     0.146 C 
ENDBRANCH  18  19
ENDBRANCH  10  18
TORSDOF 3
ENDMDL
MODEL 9
REMARK VINA RESULT:    -7.893      4.021      7.190
REMARK INTER + INTRA:          -9.822
REMARK INTER:                  -8.780
REMARK INTRA:                  -1.042
REMARK UNBOUND:                -0.545
REMARK SMILES Cc1ccc(-c2nc3ccc(C)cn3c2CC(=O)N(C)C)cc1
REMARK SMILES IDX 6 1 7 2 8 3 9 4 10 5 11 6 12 7 13 8 14 9 15 10 5 11 2 12
REMARK SMILES IDX 3 13 23 14 4 15 22 16 1 17 16 18 17 19 18 20 19 21 20 22
REMARK SMILES IDX 21 23
REMARK H PARENT
ROOT
ATOM      1  C   UNL     1     116.280 158.367 113.536  1.00  0.00     0.093 A 
ATOM      2  N   UNL     1     116.732 159.584 113.086  1.00  0.00    -0.228 NA
ATOM      3  C   UNL     1     117.450 159.317 112.020  1.00  0.00     0.137 A 
ATOM      4  C   UNL     1     118.188 160.178 111.160  1.00  0.00     0.048 C 
ATOM      5  C   UNL     1     118.888 159.662 110.133  1.00  0.00     0.009 C 
ATOM      6  C   UNL     1     118.914 158.226 109.869  1.00  0.00    -0.034 C 
ATOM      7  C   UNL     1     119.727 157.738 108.712  1.00  0.00     0.046 C 
ATOM      8  C   UNL     1     118.205 157.415 110.678  1.00  0.00     0.096 C 
ATOM      9  N   UNL     1     117.469 157.954 111.737  1.00  0.00    -0.303 N 
ATOM     10  C   UNL     1     116.657 157.340 112.682  1.00  0.00     0.060 A 
ENDROOT
BRANCH   1  11
ATOM     11  C   UNL     1     115.471 158.259 114.735  1.00  0.00     0.002 A 
ATOM     12  C   UNL     1     113.945 158.033 117.092  1.00  0.00    -0.051 A 
ATOM     13  C   UNL     1     115.341 157.956 117.142  1.00  0.00     0.004 A 
ATOM     14  C   UNL     1     113.317 158.226 115.855  1.00  0.00     0.004 A 
ATOM     15  C   UNL     1     116.096 158.056 115.970  1.00  0.00     0.011 A 
ATOM     16  C   UNL     1     114.074 158.327 114.684  1.00  0.00     0.011 A 
ATOM     17  C   UNL     1     113.134 157.953 118.352  1.00  0.00     0.044 C 
ENDBRANCH   1  11
BRANCH  10  18
ATOM     18  C   UNL     1     116.335 155.878 112.673  1.00  0.00     0.157 C 
BRANCH  18  19
ATOM     19  C   UNL     1     116.999 155.145 113.838  1.00  0.00     0.228 C 
ATOM     20  O   UNL     1     118.232 155.068 113.870  1.00  0.00    -0.274 OA
ATOM     21  N   UNL     1     116.205 154.584 114.829  1.00  0.00    -0.348 N 
ATOM     22  C   UNL     1     114.754 154.662 114.883  1.00  0.00     0.146 C 
ATOM     23  C   UNL     1     116.832 153.762 115.852  1.00  0.00     0.146 C 
ENDBRANCH  18  19
ENDBRANCH  10  18
TORSDOF 3
ENDMDL
