MODEL 1
REMARK VINA RESULT:    -7.661      0.000      0.000
REMARK INTER + INTRA:          -8.447
REMARK INTER:                  -8.109
REMARK INTRA:                  -0.339
REMARK UNBOUND:                -0.339
REMARK SMILES Cc1ncc2n1-c1ccc(Cl)cc1C(c1ccccc1F)=NC2
REMARK SMILES IDX 1 1 2 2 3 3 4 4 5 5 6 6 7 7 8 8 9 9 10 10 11 11 12 12 13 13
REMARK SMILES IDX 14 14 22 15 23 16 15 17 16 18 20 19 17 20 19 21 18 22 21 23
REMARK H PARENT
ROOT
ATOM      1  C   UNL     1     144.085  98.607 134.509  1.00  0.00     0.088 C 
ATOM      2  C   UNL     1     143.876  97.170 134.831  1.00  0.00     0.110 A 
ATOM      3  N   UNL     1     144.625  96.203 134.335  1.00  0.00    -0.241 NA
ATOM      4  C   UNL     1     144.244  95.065 134.979  1.00  0.00     0.137 A 
ATOM      5  C   UNL     1     143.226  95.324 135.865  1.00  0.00     0.064 A 
ATOM      6  N   UNL     1     142.962  96.673 135.758  1.00  0.00    -0.298 N 
ATOM      7  C   UNL     1     141.918  97.350 136.447  1.00  0.00     0.057 A 
ATOM      8  C   UNL     1     141.227  98.386 135.799  1.00  0.00     0.029 A 
ATOM      9  C   UNL     1     140.163  99.033 136.431  1.00  0.00     0.023 A 
ATOM     10  C   UNL     1     139.774  98.642 137.707  1.00  0.00     0.041 A 
ATOM     11  Cl  UNL     1     138.456  99.433 138.478  1.00  0.00    -0.084 Cl
ATOM     12  C   UNL     1     140.444  97.614 138.364  1.00  0.00     0.033 A 
ATOM     13  C   UNL     1     141.526  96.963 137.745  1.00  0.00     0.026 A 
ATOM     14  C   UNL     1     142.260  95.938 138.557  1.00  0.00     0.077 C 
ATOM     15  N   UNL     1     142.692  94.802 138.128  1.00  0.00    -0.278 NA
ATOM     16  C   UNL     1     142.458  94.424 136.746  1.00  0.00     0.198 C 
ENDROOT
BRANCH  14  17
ATOM     17  C   UNL     1     142.549  96.267 139.976  1.00  0.00     0.036 A 
ATOM     18  C   UNL     1     141.557  96.084 140.947  1.00  0.00     0.013 A 
ATOM     19  C   UNL     1     143.798  96.770 140.337  1.00  0.00     0.132 A 
ATOM     20  C   UNL     1     141.831  96.402 142.279  1.00  0.00     0.001 A 
ATOM     21  C   UNL     1     144.071  97.085 141.665  1.00  0.00     0.040 A 
ATOM     22  C   UNL     1     143.087  96.900 142.637  1.00  0.00     0.003 A 
ATOM     23  F   UNL     1     144.773  96.915 139.427  1.00  0.00    -0.206 F 
ENDBRANCH  14  17
TORSDOF 1
ENDMDL
MODEL 2
REMARK VINA RESULT:    -7.472      2.660      4.277
REMARK INTER + INTRA:          -8.248
REMARK INTER:                  -9.143
REMARK INTRA:                   0.896
REMARK UNBOUND:                -0.339
REMARK SMILES Cc1ncc2n1-c1ccc(Cl)cc1C(c1ccccc1F)=NC2
REMARK SMILES IDX 1 1 2 2 3 3 4 4 5 5 6 6 7 7 8 8 9 9 10 10 11 11 12 12 13 13
REMARK SMILES IDX 14 14 22 15 23 16 15 17 16 18 20 19 17 20 19 21 18 22 21 23
REMARK H PARENT
ROOT
ATOM      1  C   UNL     1     140.707  98.040 137.740  1.00  0.00     0.088 C 
ATOM      2  C   UNL     1     141.997  97.338 137.508  1.00  0.00     0.110 A 
ATOM      3  N   UNL     1     142.581  97.274 136.326  1.00  0.00    -0.241 NA
ATOM      4  C   UNL     1     143.801  96.707 136.540  1.00  0.00     0.137 A 
ATOM      5  C   UNL     1     143.965  96.391 137.867  1.00  0.00     0.064 A 
ATOM      6  N   UNL     1     142.797  96.768 138.496  1.00  0.00    -0.298 N 
ATOM      7  C   UNL     1     142.511  96.544 139.871  1.00  0.00     0.057 A 
ATOM      8  C   UNL     1     141.200  96.220 140.255  1.00  0.00     0.029 A 
ATOM      9  C   UNL     1     140.900  95.942 141.591  1.00  0.00     0.023 A 
ATOM     10  C   UNL     1     141.907  95.976 142.548  1.00  0.00     0.041 A 
ATOM     11  Cl  UNL     1     141.536  95.624 144.190  1.00  0.00    -0.084 Cl
ATOM     12  C   UNL     1     143.214  96.291 142.186  1.00  0.00     0.033 A 
ATOM     13  C   UNL     1     143.528  96.586 140.847  1.00  0.00     0.026 A 
ATOM     14  C   UNL     1     144.934  97.017 140.555  1.00  0.00     0.077 C 
ATOM     15  N   UNL     1     145.641  96.652 139.541  1.00  0.00    -0.278 NA
ATOM     16  C   UNL     1     145.079  95.728 138.573  1.00  0.00     0.198 C 
ENDROOT
BRANCH  14  17
ATOM     17  C   UNL     1     145.565  97.976 141.497  1.00  0.00     0.036 A 
ATOM     18  C   UNL     1     144.846  98.434 142.607  1.00  0.00     0.013 A 
ATOM     19  C   UNL     1     146.864  98.428 141.268  1.00  0.00     0.132 A 
ATOM     20  C   UNL     1     145.442  99.341 143.486  1.00  0.00     0.001 A 
ATOM     21  C   UNL     1     147.457  99.331 142.146  1.00  0.00     0.040 A 
ATOM     22  C   UNL     1     146.745  99.788 143.256  1.00  0.00     0.003 A 
ATOM     23  F   UNL     1     147.582  97.970 140.232  1.00  0.00    -0.206 F 
ENDBRANCH  14  17
TORSDOF 1
ENDMDL
MODEL 3
REMARK VINA RESULT:    -7.293      3.388      5.062
REMARK INTER + INTRA:          -8.058
REMARK INTER:                  -7.689
REMARK INTRA:                  -0.368
REMARK UNBOUND:                -0.339
REMARK SMILES Cc1ncc2n1-c1ccc(Cl)cc1C(c1ccccc1F)=NC2
REMARK SMILES IDX 1 1 2 2 3 3 4 4 5 5 6 6 7 7 8 8 9 9 10 10 11 11 12 12 13 13
REMARK SMILES IDX 14 14 22 15 23 16 15 17 16 18 20 19 17 20 19 21 18 22 21 23
REMARK H PARENT
ROOT
ATOM      1  C   UNL     1     138.206  95.751 133.285  1.00  0.00     0.088 C 
ATOM      2  C   UNL     1     139.044  96.975 133.377  1.00  0.00     0.110 A 
ATOM      3  N   UNL     1     138.556  98.195 133.245  1.00  0.00    -0.241 NA
ATOM      4  C   UNL     1     139.577  99.043 133.554  1.00  0.00     0.137 A 
ATOM      5  C   UNL     1     140.720  98.342 133.853  1.00  0.00     0.064 A 
ATOM      6  N   UNL     1     140.395  97.008 133.715  1.00  0.00    -0.298 N 
ATOM      7  C   UNL     1     141.316  95.933 133.855  1.00  0.00     0.057 A 
ATOM      8  C   UNL     1     141.194  94.811 133.019  1.00  0.00     0.029 A 
ATOM      9  C   UNL     1     142.115  93.765 133.097  1.00  0.00     0.023 A 
ATOM     10  C   UNL     1     143.170  93.836 134.000  1.00  0.00     0.041 A 
ATOM     11  Cl  UNL     1     144.308  92.550 134.086  1.00  0.00    -0.084 Cl
ATOM     12  C   UNL     1     143.310  94.942 134.834  1.00  0.00     0.033 A 
ATOM     13  C   UNL     1     142.382  95.997 134.776  1.00  0.00     0.026 A 
ATOM     14  C   UNL     1     142.543  97.103 135.776  1.00  0.00     0.077 C 
ATOM     15  N   UNL     1     142.403  98.362 135.539  1.00  0.00    -0.278 NA
ATOM     16  C   UNL     1     142.077  98.805 134.196  1.00  0.00     0.198 C 
ENDROOT
BRANCH  14  17
ATOM     17  C   UNL     1     142.859  96.719 137.175  1.00  0.00     0.036 A 
ATOM     18  C   UNL     1     144.186  96.464 137.543  1.00  0.00     0.013 A 
ATOM     19  C   UNL     1     141.836  96.599 138.115  1.00  0.00     0.132 A 
ATOM     20  C   UNL     1     144.477  96.097 138.858  1.00  0.00     0.001 A 
ATOM     21  C   UNL     1     142.128  96.234 139.426  1.00  0.00     0.040 A 
ATOM     22  C   UNL     1     143.450  95.983 139.798  1.00  0.00     0.003 A 
ATOM     23  F   UNL     1     140.565  96.876 137.791  1.00  0.00    -0.206 F 
ENDBRANCH  14  17
TORSDOF 1
ENDMDL
MODEL 4
REMARK VINA RESULT:    -7.091      2.979      6.470
REMARK INTER + INTRA:          -7.844
REMARK INTER:                  -7.303
REMARK INTRA:                  -0.541
REMARK UNBOUND:                -0.339
REMARK SMILES Cc1ncc2n1-c1ccc(Cl)cc1C(c1ccccc1F)=NC2
REMARK SMILES IDX 1 1 2 2 3 3 4 4 5 5 6 6 7 7 8 8 9 9 10 10 11 11 12 12 13 13
REMARK SMILES IDX 14 14 22 15 23 16 15 17 16 18 20 19 17 20 19 21 18 22 21 23
REMARK H PARENT
ROOT
ATOM      1  C   UNL     1     141.838  98.334 143.938  1.00  0.00     0.088 C 
ATOM      2  C   UNL     1     141.755  96.949 143.403  1.00  0.00     0.110 A 
ATOM      3  N   UNL     1     140.769  96.121 143.697  1.00  0.00    -0.241 NA
ATOM      4  C   UNL     1     140.947  95.029 142.901  1.00  0.00     0.137 A 
ATOM      5  C   UNL     1     142.072  95.170 142.124  1.00  0.00     0.064 A 
ATOM      6  N   UNL     1     142.616  96.392 142.460  1.00  0.00    -0.298 N 
ATOM      7  C   UNL     1     143.840  96.901 141.946  1.00  0.00     0.057 A 
ATOM      8  C   UNL     1     144.682  97.646 142.788  1.00  0.00     0.029 A 
ATOM      9  C   UNL     1     145.915  98.113 142.327  1.00  0.00     0.023 A 
ATOM     10  C   UNL     1     146.321  97.829 141.028  1.00  0.00     0.041 A 
ATOM     11  Cl  UNL     1     147.844  98.397 140.466  1.00  0.00    -0.084 Cl
ATOM     12  C   UNL     1     145.502  97.089 140.180  1.00  0.00     0.033 A 
ATOM     13  C   UNL     1     144.252  96.624 140.626  1.00  0.00     0.026 A 
ATOM     14  C   UNL     1     143.386  95.923 139.622  1.00  0.00     0.077 C 
ATOM     15  N   UNL     1     142.679  94.868 139.840  1.00  0.00    -0.278 NA
ATOM     16  C   UNL     1     142.699  94.253 141.154  1.00  0.00     0.198 C 
ENDROOT
BRANCH  14  17
ATOM     17  C   UNL     1     143.306  96.510 138.260  1.00  0.00     0.036 A 
ATOM     18  C   UNL     1     142.350  97.496 137.984  1.00  0.00     0.013 A 
ATOM     19  C   UNL     1     144.169  96.072 137.258  1.00  0.00     0.132 A 
ATOM     20  C   UNL     1     142.274  98.040 136.701  1.00  0.00     0.001 A 
ATOM     21  C   UNL     1     144.094  96.616 135.979  1.00  0.00     0.040 A 
ATOM     22  C   UNL     1     143.145  97.602 135.700  1.00  0.00     0.003 A 
ATOM     23  F   UNL     1     145.117  95.158 137.514  1.00  0.00    -0.206 F 
ENDBRANCH  14  17
TORSDOF 1
ENDMDL
MODEL 5
REMARK VINA RESULT:    -6.987      3.446      6.321
REMARK INTER + INTRA:          -7.734
REMARK INTER:                  -7.100
REMARK INTRA:                  -0.634
REMARK UNBOUND:                -0.339
REMARK SMILES Cc1ncc2n1-c1ccc(Cl)cc1C(c1ccccc1F)=NC2
REMARK SMILES IDX 1 1 2 2 3 3 4 4 5 5 6 6 7 7 8 8 9 9 10 10 11 11 12 12 13 13
REMARK SMILES IDX 14 14 22 15 23 16 15 17 16 18 20 19 17 20 19 21 18 22 21 23
REMARK H PARENT
ROOT
ATOM      1  C   UNL     1     145.049  94.251 135.679  1.00  0.00     0.088 C 
ATOM      2  C   UNL     1     145.229  95.241 134.585  1.00  0.00     0.110 A 
ATOM      3  N   UNL     1     146.181  95.145 133.675  1.00  0.00    -0.241 NA
ATOM      4  C   UNL     1     145.926  96.122 132.760  1.00  0.00     0.137 A 
ATOM      5  C   UNL     1     144.819  96.851 133.121  1.00  0.00     0.064 A 
ATOM      6  N   UNL     1     144.378  96.309 134.310  1.00  0.00    -0.298 N 
ATOM      7  C   UNL     1     143.294  96.818 135.078  1.00  0.00     0.057 A 
ATOM      8  C   UNL     1     143.371  96.785 136.480  1.00  0.00     0.029 A 
ATOM      9  C   UNL     1     142.347  97.327 137.260  1.00  0.00     0.023 A 
ATOM     10  C   UNL     1     141.246  97.914 136.647  1.00  0.00     0.041 A 
ATOM     11  Cl  UNL     1     139.991  98.589 137.609  1.00  0.00    -0.084 Cl
ATOM     12  C   UNL     1     141.153  97.960 135.258  1.00  0.00     0.033 A 
ATOM     13  C   UNL     1     142.171  97.407 134.460  1.00  0.00     0.026 A 
ATOM     14  C   UNL     1     141.950  97.403 132.977  1.00  0.00     0.077 C 
ATOM     15  N   UNL     1     142.837  97.667 132.080  1.00  0.00    -0.278 NA
ATOM     16  C   UNL     1     144.183  98.022 132.489  1.00  0.00     0.198 C 
ENDROOT
BRANCH  14  17
ATOM     17  C   UNL     1     140.598  97.031 132.488  1.00  0.00     0.036 A 
ATOM     18  C   UNL     1     140.193  95.691 132.518  1.00  0.00     0.013 A 
ATOM     19  C   UNL     1     139.741  98.011 131.989  1.00  0.00     0.132 A 
ATOM     20  C   UNL     1     138.924  95.346 132.051  1.00  0.00     0.001 A 
ATOM     21  C   UNL     1     138.475  97.665 131.525  1.00  0.00     0.040 A 
ATOM     22  C   UNL     1     138.066  96.331 131.557  1.00  0.00     0.003 A 
ATOM     23  F   UNL     1     140.097  99.304 131.989  1.00  0.00    -0.206 F 
ENDBRANCH  14  17
TORSDOF 1
ENDMDL
MODEL 6
REMARK VINA RESULT:    -6.914      3.167      4.738
REMARK INTER + INTRA:          -7.656
REMARK INTER:                  -7.062
REMARK INTRA:                  -0.595
REMARK UNBOUND:                -0.339
REMARK SMILES Cc1ncc2n1-c1ccc(Cl)cc1C(c1ccccc1F)=NC2
REMARK SMILES IDX 1 1 2 2 3 3 4 4 5 5 6 6 7 7 8 8 9 9 10 10 11 11 12 12 13 13
REMARK SMILES IDX 14 14 22 15 23 16 15 17 16 18 20 19 17 20 19 21 18 22 21 23
REMARK H PARENT
ROOT
ATOM      1  C   UNL     1     141.339  93.753 133.022  1.00  0.00     0.088 C 
ATOM      2  C   UNL     1     141.450  95.197 133.358  1.00  0.00     0.110 A 
ATOM      3  N   UNL     1     140.555  96.094 132.985  1.00  0.00    -0.241 NA
ATOM      4  C   UNL     1     140.904  97.253 133.611  1.00  0.00     0.137 A 
ATOM      5  C   UNL     1     142.044  97.080 134.358  1.00  0.00     0.064 A 
ATOM      6  N   UNL     1     142.420  95.765 134.179  1.00  0.00    -0.298 N 
ATOM      7  C   UNL     1     143.602  95.182 134.715  1.00  0.00     0.057 A 
ATOM      8  C   UNL     1     144.302  94.230 133.957  1.00  0.00     0.029 A 
ATOM      9  C   UNL     1     145.494  93.680 134.434  1.00  0.00     0.023 A 
ATOM     10  C   UNL     1     146.000  94.085 135.664  1.00  0.00     0.041 A 
ATOM     11  Cl  UNL     1     147.474  93.414 136.244  1.00  0.00    -0.084 Cl
ATOM     12  C   UNL     1     145.323  95.031 136.428  1.00  0.00     0.033 A 
ATOM     13  C   UNL     1     144.115  95.583 135.966  1.00  0.00     0.026 A 
ATOM     14  C   UNL     1     143.393  96.517 136.892  1.00  0.00     0.077 C 
ATOM     15  N   UNL     1     142.805  97.613 136.552  1.00  0.00    -0.278 NA
ATOM     16  C   UNL     1     142.827  98.036 135.164  1.00  0.00     0.198 C 
ENDROOT
BRANCH  14  17
ATOM     17  C   UNL     1     143.317  96.136 138.325  1.00  0.00     0.036 A 
ATOM     18  C   UNL     1     143.948  96.931 139.289  1.00  0.00     0.013 A 
ATOM     19  C   UNL     1     142.631  94.984 138.706  1.00  0.00     0.132 A 
ATOM     20  C   UNL     1     143.879  96.564 140.635  1.00  0.00     0.001 A 
ATOM     21  C   UNL     1     142.561  94.621 140.048  1.00  0.00     0.040 A 
ATOM     22  C   UNL     1     143.186  95.412 141.014  1.00  0.00     0.003 A 
ATOM     23  F   UNL     1     141.987  94.233 137.801  1.00  0.00    -0.206 F 
ENDBRANCH  14  17
TORSDOF 1
ENDMDL
MODEL 7
REMARK VINA RESULT:    -6.730      4.550      6.282
REMARK INTER + INTRA:          -7.462
REMARK INTER:                  -6.867
REMARK INTRA:                  -0.595
REMARK UNBOUND:                -0.339
REMARK SMILES Cc1ncc2n1-c1ccc(Cl)cc1C(c1ccccc1F)=NC2
REMARK SMILES IDX 1 1 2 2 3 3 4 4 5 5 6 6 7 7 8 8 9 9 10 10 11 11 12 12 13 13
REMARK SMILES IDX 14 14 22 15 23 16 15 17 16 18 20 19 17 20 19 21 18 22 21 23
REMARK H PARENT
ROOT
ATOM      1  C   UNL     1     137.498  95.359 130.964  1.00  0.00     0.088 C 
ATOM      2  C   UNL     1     138.312  96.599 130.867  1.00  0.00     0.110 A 
ATOM      3  N   UNL     1     137.857  97.721 130.342  1.00  0.00    -0.241 NA
ATOM      4  C   UNL     1     138.813  98.662 130.581  1.00  0.00     0.137 A 
ATOM      5  C   UNL     1     139.887  98.110 131.236  1.00  0.00     0.064 A 
ATOM      6  N   UNL     1     139.586  96.775 131.402  1.00  0.00    -0.298 N 
ATOM      7  C   UNL     1     140.467  95.812 131.968  1.00  0.00     0.057 A 
ATOM      8  C   UNL     1     140.485  94.508 131.447  1.00  0.00     0.029 A 
ATOM      9  C   UNL     1     141.377  93.556 131.947  1.00  0.00     0.023 A 
ATOM     10  C   UNL     1     142.264  93.903 132.960  1.00  0.00     0.041 A 
ATOM     11  Cl  UNL     1     143.368  92.732 133.566  1.00  0.00    -0.084 Cl
ATOM     12  C   UNL     1     142.264  95.191 133.486  1.00  0.00     0.033 A 
ATOM     13  C   UNL     1     141.362  96.156 133.002  1.00  0.00     0.026 A 
ATOM     14  C   UNL     1     141.354  97.489 133.690  1.00  0.00     0.077 C 
ATOM     15  N   UNL     1     141.260  98.637 133.112  1.00  0.00    -0.278 NA
ATOM     16  C   UNL     1     141.168  98.703 131.665  1.00  0.00     0.198 C 
ENDROOT
BRANCH  14  17
ATOM     17  C   UNL     1     141.428  97.493 135.173  1.00  0.00     0.036 A 
ATOM     18  C   UNL     1     140.263  97.310 135.927  1.00  0.00     0.013 A 
ATOM     19  C   UNL     1     142.651  97.693 135.811  1.00  0.00     0.132 A 
ATOM     20  C   UNL     1     140.336  97.322 137.321  1.00  0.00     0.001 A 
ATOM     21  C   UNL     1     142.724  97.703 137.201  1.00  0.00     0.040 A 
ATOM     22  C   UNL     1     141.565  97.517 137.957  1.00  0.00     0.003 A 
ATOM     23  F   UNL     1     143.783  97.830 135.106  1.00  0.00    -0.206 F 
ENDBRANCH  14  17
TORSDOF 1
ENDMDL
MODEL 8
REMARK VINA RESULT:    -6.728      4.163      7.012
REMARK INTER + INTRA:          -7.460
REMARK INTER:                  -6.896
REMARK INTRA:                  -0.564
REMARK UNBOUND:                -0.339
REMARK SMILES Cc1ncc2n1-c1ccc(Cl)cc1C(c1ccccc1F)=NC2
REMARK SMILES IDX 1 1 2 2 3 3 4 4 5 5 6 6 7 7 8 8 9 9 10 10 11 11 12 12 13 13
REMARK SMILES IDX 14 14 22 15 23 16 15 17 16 18 20 19 17 20 19 21 18 22 21 23
REMARK H PARENT
ROOT
ATOM      1  C   UNL     1     142.339  94.714 136.563  1.00  0.00     0.088 C 
ATOM      2  C   UNL     1     143.003  94.987 135.261  1.00  0.00     0.110 A 
ATOM      3  N   UNL     1     143.970  94.231 134.773  1.00  0.00    -0.241 NA
ATOM      4  C   UNL     1     144.203  94.690 133.511  1.00  0.00     0.137 A 
ATOM      5  C   UNL     1     143.391  95.760 133.223  1.00  0.00     0.064 A 
ATOM      6  N   UNL     1     142.633  95.978 134.355  1.00  0.00    -0.298 N 
ATOM      7  C   UNL     1     141.711  97.049 134.517  1.00  0.00     0.057 A 
ATOM      8  C   UNL     1     141.586  97.663 135.774  1.00  0.00     0.029 A 
ATOM      9  C   UNL     1     140.729  98.751 135.950  1.00  0.00     0.023 A 
ATOM     10  C   UNL     1     140.001  99.241 134.872  1.00  0.00     0.041 A 
ATOM     11  Cl  UNL     1     138.954 100.588 135.089  1.00  0.00    -0.084 Cl
ATOM     12  C   UNL     1     140.115  98.649 133.617  1.00  0.00     0.033 A 
ATOM     13  C   UNL     1     140.964  97.544 133.428  1.00  0.00     0.026 A 
ATOM     14  C   UNL     1     140.954  96.899 132.074  1.00  0.00     0.077 C 
ATOM     15  N   UNL     1     141.986  96.470 131.434  1.00  0.00    -0.278 NA
ATOM     16  C   UNL     1     143.305  96.614 132.024  1.00  0.00     0.198 C 
ENDROOT
BRANCH  14  17
ATOM     17  C   UNL     1     139.635  96.703 131.420  1.00  0.00     0.036 A 
ATOM     18  C   UNL     1     139.183  97.633 130.476  1.00  0.00     0.013 A 
ATOM     19  C   UNL     1     138.845  95.604 131.755  1.00  0.00     0.132 A 
ATOM     20  C   UNL     1     137.940  97.448 129.869  1.00  0.00     0.001 A 
ATOM     21  C   UNL     1     137.606  95.420 131.147  1.00  0.00     0.040 A 
ATOM     22  C   UNL     1     137.153  96.343 130.203  1.00  0.00     0.003 A 
ATOM     23  F   UNL     1     139.278  94.683 132.627  1.00  0.00    -0.206 F 
ENDBRANCH  14  17
TORSDOF 1
ENDMDL
MODEL 9
REMARK VINA RESULT:    -6.618      3.855      6.335
REMARK INTER + INTRA:          -7.343
REMARK INTER:                  -6.807
REMARK INTRA:                  -0.537
REMARK UNBOUND:                -0.339
REMARK SMILES Cc1ncc2n1-c1ccc(Cl)cc1C(c1ccccc1F)=NC2
REMARK SMILES IDX 1 1 2 2 3 3 4 4 5 5 6 6 7 7 8 8 9 9 10 10 11 11 12 12 13 13
REMARK SMILES IDX 14 14 22 15 23 16 15 17 16 18 20 19 17 20 19 21 18 22 21 23
REMARK H PARENT
ROOT
ATOM      1  C   UNL     1     146.192  94.675 134.711  1.00  0.00     0.088 C 
ATOM      2  C   UNL     1     145.229  94.961 135.807  1.00  0.00     0.110 A 
ATOM      3  N   UNL     1     145.603  95.353 137.011  1.00  0.00    -0.241 NA
ATOM      4  C   UNL     1     144.457  95.672 137.674  1.00  0.00     0.137 A 
ATOM      5  C   UNL     1     143.356  95.449 136.882  1.00  0.00     0.064 A 
ATOM      6  N   UNL     1     143.841  94.964 135.686  1.00  0.00    -0.298 N 
ATOM      7  C   UNL     1     143.030  94.526 134.603  1.00  0.00     0.057 A 
ATOM      8  C   UNL     1     143.443  93.424 133.838  1.00  0.00     0.029 A 
ATOM      9  C   UNL     1     142.641  92.937 132.803  1.00  0.00     0.023 A 
ATOM     10  C   UNL     1     141.418  93.540 132.533  1.00  0.00     0.041 A 
ATOM     11  Cl  UNL     1     140.428  92.932 131.264  1.00  0.00    -0.084 Cl
ATOM     12  C   UNL     1     140.989  94.631 133.283  1.00  0.00     0.033 A 
ATOM     13  C   UNL     1     141.792  95.140 134.319  1.00  0.00     0.026 A 
ATOM     14  C   UNL     1     141.308  96.379 135.012  1.00  0.00     0.077 C 
ATOM     15  N   UNL     1     141.362  96.606 136.279  1.00  0.00    -0.278 NA
ATOM     16  C   UNL     1     141.916  95.597 137.164  1.00  0.00     0.198 C 
ENDROOT
BRANCH  14  17
ATOM     17  C   UNL     1     140.745  97.461 134.165  1.00  0.00     0.036 A 
ATOM     18  C   UNL     1     141.595  98.433 133.625  1.00  0.00     0.013 A 
ATOM     19  C   UNL     1     139.374  97.514 133.919  1.00  0.00     0.132 A 
ATOM     20  C   UNL     1     141.060  99.452 132.834  1.00  0.00     0.001 A 
ATOM     21  C   UNL     1     138.842  98.530 133.130  1.00  0.00     0.040 A 
ATOM     22  C   UNL     1     139.686  99.500 132.586  1.00  0.00     0.003 A 
ATOM     23  F   UNL     1     138.550  96.569 134.395  1.00  0.00    -0.206 F 
ENDBRANCH  14  17
TORSDOF 1
ENDMDL
