MODEL 1
REMARK VINA RESULT:    -9.493      0.000      0.000
REMARK INTER + INTRA:         -10.995
REMARK INTER:                 -10.602
REMARK INTRA:                  -0.392
REMARK UNBOUND:                -0.392
REMARK SMILES O=C1CN=C(c2ccccc2Cl)c2cc([N+](=O)[O-])ccc2N1
REMARK SMILES IDX 1 1 2 2 3 3 4 4 5 5 13 6 14 7 15 8 19 9 20 10 21 11 22 12
REMARK SMILES IDX 6 14 7 15 11 16 8 17 10 18 9 19 12 20 16 21 17 22 18 23
REMARK H PARENT 22 13
ROOT
ATOM      1  O   UNL     1     117.051 161.734 111.595  1.00  0.00    -0.273 OA
ATOM      2  C   UNL     1     117.419 160.559 111.603  1.00  0.00     0.246 C 
ATOM      3  C   UNL     1     118.578 160.054 110.767  1.00  0.00     0.243 C 
ATOM      4  N   UNL     1     118.116 159.077 109.793  1.00  0.00    -0.274 NA
ATOM      5  C   UNL     1     117.710 157.924 110.194  1.00  0.00     0.076 C 
ATOM      6  C   UNL     1     117.583 157.470 111.614  1.00  0.00     0.031 A 
ATOM      7  C   UNL     1     117.843 156.117 111.903  1.00  0.00     0.098 A 
ATOM      8  C   UNL     1     117.568 155.604 113.175  1.00  0.00     0.270 A 
ATOM      9  C   UNL     1     117.021 156.422 114.167  1.00  0.00     0.088 A 
ATOM     10  C   UNL     1     116.777 157.768 113.885  1.00  0.00     0.034 A 
ATOM     11  C   UNL     1     117.085 158.312 112.627  1.00  0.00     0.051 A 
ATOM     12  N   UNL     1     116.841 159.685 112.485  1.00  0.00    -0.324 N 
ATOM     13  H   UNL     1     116.226 160.149 113.142  1.00  0.00     0.170 HD
ENDROOT
BRANCH   5  14
ATOM     14  C   UNL     1     117.273 156.982 109.130  1.00  0.00     0.019 A 
ATOM     15  C   UNL     1     115.958 156.499 109.183  1.00  0.00     0.012 A 
ATOM     16  C   UNL     1     118.128 156.596 108.092  1.00  0.00     0.050 A 
ATOM     17  C   UNL     1     115.504 155.622 108.199  1.00  0.00     0.001 A 
ATOM     18  C   UNL     1     117.664 155.717 107.112  1.00  0.00     0.021 A 
ATOM     19  C   UNL     1     116.355 155.230 107.166  1.00  0.00     0.002 A 
ATOM     20  Cl  UNL     1     119.769 157.124 108.003  1.00  0.00    -0.084 Cl
ENDBRANCH   5  14
BRANCH   8  21
ATOM     21  N   UNL     1     117.833 154.188 113.465  1.00  0.00     0.062 N 
ATOM     22  O   UNL     1     117.638 153.792 114.623  1.00  0.00    -0.258 OA
ATOM     23  O   UNL     1     118.228 153.476 112.533  1.00  0.00    -0.258 OA
ENDBRANCH   8  21
TORSDOF 2
ENDMDL
MODEL 2
REMARK VINA RESULT:    -8.961      3.503      5.703
REMARK INTER + INTRA:         -10.401
REMARK INTER:                 -10.254
REMARK INTRA:                  -0.147
REMARK UNBOUND:                -0.392
REMARK SMILES O=C1CN=C(c2ccccc2Cl)c2cc([N+](=O)[O-])ccc2N1
REMARK SMILES IDX 1 1 2 2 3 3 4 4 5 5 13 6 14 7 15 8 19 9 20 10 21 11 22 12
REMARK SMILES IDX 6 14 7 15 11 16 8 17 10 18 9 19 12 20 16 21 17 22 18 23
REMARK H PARENT 22 13
ROOT
ATOM      1  O   UNL     1     122.861 160.542 108.301  1.00  0.00    -0.273 OA
ATOM      2  C   UNL     1     121.715 160.093 108.253  1.00  0.00     0.246 C 
ATOM      3  C   UNL     1     120.492 160.923 108.583  1.00  0.00     0.243 C 
ATOM      4  N   UNL     1     119.808 160.382 109.748  1.00  0.00    -0.274 NA
ATOM      5  C   UNL     1     119.200 159.251 109.659  1.00  0.00     0.076 C 
ATOM      6  C   UNL     1     119.169 158.350 108.466  1.00  0.00     0.031 A 
ATOM      7  C   UNL     1     117.996 157.610 108.224  1.00  0.00     0.098 A 
ATOM      8  C   UNL     1     117.977 156.625 107.230  1.00  0.00     0.270 A 
ATOM      9  C   UNL     1     119.123 156.355 106.478  1.00  0.00     0.088 A 
ATOM     10  C   UNL     1     120.283 157.098 106.708  1.00  0.00     0.034 A 
ATOM     11  C   UNL     1     120.309 158.120 107.672  1.00  0.00     0.051 A 
ATOM     12  N   UNL     1     121.516 158.827 107.772  1.00  0.00    -0.324 N 
ATOM     13  H   UNL     1     122.360 158.423 107.384  1.00  0.00     0.170 HD
ENDROOT
BRANCH   5  14
ATOM     14  C   UNL     1     118.513 158.783 110.892  1.00  0.00     0.019 A 
ATOM     15  C   UNL     1     118.766 157.474 111.324  1.00  0.00     0.012 A 
ATOM     16  C   UNL     1     117.657 159.616 111.619  1.00  0.00     0.050 A 
ATOM     17  C   UNL     1     118.152 156.997 112.481  1.00  0.00     0.001 A 
ATOM     18  C   UNL     1     117.045 159.130 112.776  1.00  0.00     0.021 A 
ATOM     19  C   UNL     1     117.291 157.823 113.206  1.00  0.00     0.002 A 
ATOM     20  Cl  UNL     1     117.275 161.220 111.108  1.00  0.00    -0.084 Cl
ENDBRANCH   5  14
BRANCH   8  21
ATOM     21  N   UNL     1     116.751 155.851 106.992  1.00  0.00     0.062 N 
ATOM     22  O   UNL     1     116.699 155.160 105.965  1.00  0.00    -0.258 OA
ATOM     23  O   UNL     1     115.848 155.932 107.834  1.00  0.00    -0.258 OA
ENDBRANCH   8  21
TORSDOF 2
ENDMDL
MODEL 3
REMARK VINA RESULT:    -8.942      3.379      5.991
REMARK INTER + INTRA:         -10.380
REMARK INTER:                 -10.586
REMARK INTRA:                   0.206
REMARK UNBOUND:                -0.392
REMARK SMILES O=C1CN=C(c2ccccc2Cl)c2cc([N+](=O)[O-])ccc2N1
REMARK SMILES IDX 1 1 2 2 3 3 4 4 5 5 13 6 14 7 15 8 19 9 20 10 21 11 22 12
REMARK SMILES IDX 6 14 7 15 11 16 8 17 10 18 9 19 12 20 16 21 17 22 18 23
REMARK H PARENT 22 13
ROOT
ATOM      1  O   UNL     1     115.784 155.953 112.458  1.00  0.00    -0.273 OA
ATOM      2  C   UNL     1     116.654 156.198 111.622  1.00  0.00     0.246 C 
ATOM      3  C   UNL     1     118.115 156.373 111.982  1.00  0.00     0.243 C 
ATOM      4  N   UNL     1     118.556 157.726 111.678  1.00  0.00    -0.274 NA
ATOM      5  C   UNL     1     118.661 158.099 110.451  1.00  0.00     0.076 C 
ATOM      6  C   UNL     1     118.298 157.295 109.244  1.00  0.00     0.031 A 
ATOM      7  C   UNL     1     119.072 157.462 108.080  1.00  0.00     0.098 A 
ATOM      8  C   UNL     1     118.670 156.871 106.876  1.00  0.00     0.270 A 
ATOM      9  C   UNL     1     117.492 156.123 106.813  1.00  0.00     0.088 A 
ATOM     10  C   UNL     1     116.732 155.946 107.970  1.00  0.00     0.034 A 
ATOM     11  C   UNL     1     117.141 156.495 109.197  1.00  0.00     0.051 A 
ATOM     12  N   UNL     1     116.318 156.203 110.295  1.00  0.00    -0.324 N 
ATOM     13  H   UNL     1     115.373 155.877 110.133  1.00  0.00     0.170 HD
ENDROOT
BRANCH   5  14
ATOM     14  C   UNL     1     119.136 159.491 110.234  1.00  0.00     0.019 A 
ATOM     15  C   UNL     1     120.302 159.673 109.477  1.00  0.00     0.012 A 
ATOM     16  C   UNL     1     118.443 160.594 110.743  1.00  0.00     0.050 A 
ATOM     17  C   UNL     1     120.778 160.961 109.238  1.00  0.00     0.001 A 
ATOM     18  C   UNL     1     118.928 161.881 110.500  1.00  0.00     0.021 A 
ATOM     19  C   UNL     1     120.093 162.064 109.750  1.00  0.00     0.002 A 
ATOM     20  Cl  UNL     1     117.029 160.426 111.718  1.00  0.00    -0.084 Cl
ENDBRANCH   5  14
BRANCH   8  21
ATOM     21  N   UNL     1     119.480 157.059 105.664  1.00  0.00     0.062 N 
ATOM     22  O   UNL     1     118.914 157.516 104.661  1.00  0.00    -0.258 OA
ATOM     23  O   UNL     1     120.678 156.755 105.721  1.00  0.00    -0.258 OA
ENDBRANCH   8  21
TORSDOF 2
ENDMDL
MODEL 4
REMARK VINA RESULT:    -8.215      3.238      6.414
REMARK INTER + INTRA:          -9.568
REMARK INTER:                  -9.763
REMARK INTRA:                   0.195
REMARK UNBOUND:                -0.392
REMARK SMILES O=C1CN=C(c2ccccc2Cl)c2cc([N+](=O)[O-])ccc2N1
REMARK SMILES IDX 1 1 2 2 3 3 4 4 5 5 13 6 14 7 15 8 19 9 20 10 21 11 22 12
REMARK SMILES IDX 6 14 7 15 11 16 8 17 10 18 9 19 12 20 16 21 17 22 18 23
REMARK H PARENT 22 13
ROOT
ATOM      1  O   UNL     1     116.519 154.581 106.721  1.00  0.00    -0.273 OA
ATOM      2  C   UNL     1     117.312 155.302 107.326  1.00  0.00     0.246 C 
ATOM      3  C   UNL     1     117.920 154.919 108.660  1.00  0.00     0.243 C 
ATOM      4  N   UNL     1     117.504 155.851 109.697  1.00  0.00    -0.274 NA
ATOM      5  C   UNL     1     117.943 157.060 109.677  1.00  0.00     0.076 C 
ATOM      6  C   UNL     1     118.815 157.672 108.627  1.00  0.00     0.031 A 
ATOM      7  C   UNL     1     119.760 158.635 109.029  1.00  0.00     0.098 A 
ATOM      8  C   UNL     1     120.474 159.363 108.070  1.00  0.00     0.270 A 
ATOM      9  C   UNL     1     120.248 159.155 106.708  1.00  0.00     0.088 A 
ATOM     10  C   UNL     1     119.320 158.190 106.309  1.00  0.00     0.034 A 
ATOM     11  C   UNL     1     118.625 157.419 107.255  1.00  0.00     0.051 A 
ATOM     12  N   UNL     1     117.760 156.449 106.727  1.00  0.00    -0.324 N 
ATOM     13  H   UNL     1     117.464 156.523 105.761  1.00  0.00     0.170 HD
ENDROOT
BRANCH   5  14
ATOM     14  C   UNL     1     117.482 157.938 110.784  1.00  0.00     0.019 A 
ATOM     15  C   UNL     1     117.159 159.266 110.475  1.00  0.00     0.012 A 
ATOM     16  C   UNL     1     117.348 157.463 112.093  1.00  0.00     0.050 A 
ATOM     17  C   UNL     1     116.712 160.122 111.481  1.00  0.00     0.001 A 
ATOM     18  C   UNL     1     116.900 158.328 113.094  1.00  0.00     0.021 A 
ATOM     19  C   UNL     1     116.584 159.654 112.789  1.00  0.00     0.002 A 
ATOM     20  Cl  UNL     1     117.774 155.851 112.538  1.00  0.00    -0.084 Cl
ENDBRANCH   5  14
BRANCH   8  21
ATOM     21  N   UNL     1     121.452 160.373 108.499  1.00  0.00     0.062 N 
ATOM     22  O   UNL     1     122.648 160.147 108.271  1.00  0.00    -0.258 OA
ATOM     23  O   UNL     1     121.020 161.390 109.058  1.00  0.00    -0.258 OA
ENDBRANCH   8  21
TORSDOF 2
ENDMDL
MODEL 5
REMARK VINA RESULT:    -8.110      2.956      5.873
REMARK INTER + INTRA:          -9.451
REMARK INTER:                 -10.099
REMARK INTRA:                   0.648
REMARK UNBOUND:                -0.392
REMARK SMILES O=C1CN=C(c2ccccc2Cl)c2cc([N+](=O)[O-])ccc2N1
REMARK SMILES IDX 1 1 2 2 3 3 4 4 5 5 13 6 14 7 15 8 19 9 20 10 21 11 22 12
REMARK SMILES IDX 6 14 7 15 11 16 8 17 10 18 9 19 12 20 16 21 17 22 18 23
REMARK H PARENT 22 13
ROOT
ATOM      1  O   UNL     1     116.294 154.849 113.414  1.00  0.00    -0.273 OA
ATOM      2  C   UNL     1     117.058 155.514 112.714  1.00  0.00     0.246 C 
ATOM      3  C   UNL     1     118.192 156.339 113.287  1.00  0.00     0.243 C 
ATOM      4  N   UNL     1     117.981 157.753 113.016  1.00  0.00    -0.274 NA
ATOM      5  C   UNL     1     118.077 158.190 111.809  1.00  0.00     0.076 C 
ATOM      6  C   UNL     1     118.320 157.367 110.584  1.00  0.00     0.031 A 
ATOM      7  C   UNL     1     119.086 157.934 109.547  1.00  0.00     0.098 A 
ATOM      8  C   UNL     1     119.193 157.281 108.313  1.00  0.00     0.270 A 
ATOM      9  C   UNL     1     118.532 156.070 108.092  1.00  0.00     0.088 A 
ATOM     10  C   UNL     1     117.784 155.501 109.125  1.00  0.00     0.034 A 
ATOM     11  C   UNL     1     117.699 156.120 110.383  1.00  0.00     0.051 A 
ATOM     12  N   UNL     1     116.960 155.424 111.351  1.00  0.00    -0.324 N 
ATOM     13  H   UNL     1     116.317 154.699 111.056  1.00  0.00     0.170 HD
ENDROOT
BRANCH   5  14
ATOM     14  C   UNL     1     117.865 159.650 111.626  1.00  0.00     0.019 A 
ATOM     15  C   UNL     1     118.755 160.340 110.793  1.00  0.00     0.012 A 
ATOM     16  C   UNL     1     116.804 160.322 112.243  1.00  0.00     0.050 A 
ATOM     17  C   UNL     1     118.587 161.708 110.585  1.00  0.00     0.001 A 
ATOM     18  C   UNL     1     116.645 161.693 112.030  1.00  0.00     0.021 A 
ATOM     19  C   UNL     1     117.535 162.385 111.203  1.00  0.00     0.002 A 
ATOM     20  Cl  UNL     1     115.707 159.530 113.314  1.00  0.00    -0.084 Cl
ENDBRANCH   5  14
BRANCH   8  21
ATOM     21  N   UNL     1     119.987 157.885 107.234  1.00  0.00     0.062 N 
ATOM     22  O   UNL     1     120.099 159.118 107.225  1.00  0.00    -0.258 OA
ATOM     23  O   UNL     1     120.499 157.123 106.403  1.00  0.00    -0.258 OA
ENDBRANCH   8  21
TORSDOF 2
ENDMDL
MODEL 6
REMARK VINA RESULT:    -7.246      2.402      5.242
REMARK INTER + INTRA:          -8.485
REMARK INTER:                  -7.978
REMARK INTRA:                  -0.507
REMARK UNBOUND:                -0.392
REMARK SMILES O=C1CN=C(c2ccccc2Cl)c2cc([N+](=O)[O-])ccc2N1
REMARK SMILES IDX 1 1 2 2 3 3 4 4 5 5 13 6 14 7 15 8 19 9 20 10 21 11 22 12
REMARK SMILES IDX 6 14 7 15 11 16 8 17 10 18 9 19 12 20 16 21 17 22 18 23
REMARK H PARENT 22 13
ROOT
ATOM      1  O   UNL     1     117.442 153.896 115.698  1.00  0.00    -0.273 OA
ATOM      2  C   UNL     1     116.957 154.847 115.085  1.00  0.00     0.246 C 
ATOM      3  C   UNL     1     116.176 154.684 113.797  1.00  0.00     0.243 C 
ATOM      4  N   UNL     1     116.862 155.346 112.698  1.00  0.00    -0.274 NA
ATOM      5  C   UNL     1     116.925 156.631 112.670  1.00  0.00     0.076 C 
ATOM      6  C   UNL     1     116.414 157.568 113.718  1.00  0.00     0.031 A 
ATOM      7  C   UNL     1     115.893 158.807 113.301  1.00  0.00     0.098 A 
ATOM      8  C   UNL     1     115.568 159.788 114.245  1.00  0.00     0.270 A 
ATOM      9  C   UNL     1     115.771 159.555 115.608  1.00  0.00     0.088 A 
ATOM     10  C   UNL     1     116.275 158.321 116.022  1.00  0.00     0.034 A 
ATOM     11  C   UNL     1     116.567 157.308 115.093  1.00  0.00     0.051 A 
ATOM     12  N   UNL     1     117.019 156.098 115.639  1.00  0.00    -0.324 N 
ATOM     13  H   UNL     1     117.373 156.084 116.588  1.00  0.00     0.170 HD
ENDROOT
BRANCH   5  14
ATOM     14  C   UNL     1     117.628 157.223 111.502  1.00  0.00     0.019 A 
ATOM     15  C   UNL     1     118.804 157.946 111.744  1.00  0.00     0.012 A 
ATOM     16  C   UNL     1     117.155 157.055 110.196  1.00  0.00     0.050 A 
ATOM     17  C   UNL     1     119.501 158.509 110.676  1.00  0.00     0.001 A 
ATOM     18  C   UNL     1     117.860 157.623 109.132  1.00  0.00     0.021 A 
ATOM     19  C   UNL     1     119.029 158.350 109.372  1.00  0.00     0.002 A 
ATOM     20  Cl  UNL     1     115.689 156.213 109.845  1.00  0.00    -0.084 Cl
ENDBRANCH   5  14
BRANCH   8  21
ATOM     21  N   UNL     1     115.033 161.083 113.800  1.00  0.00     0.062 N 
ATOM     22  O   UNL     1     113.827 161.141 113.524  1.00  0.00    -0.258 OA
ATOM     23  O   UNL     1     115.819 162.036 113.734  1.00  0.00    -0.258 OA
ENDBRANCH   8  21
TORSDOF 2
ENDMDL
MODEL 7
REMARK VINA RESULT:    -7.155      4.278      6.969
REMARK INTER + INTRA:          -8.384
REMARK INTER:                  -7.774
REMARK INTRA:                  -0.610
REMARK UNBOUND:                -0.392
REMARK SMILES O=C1CN=C(c2ccccc2Cl)c2cc([N+](=O)[O-])ccc2N1
REMARK SMILES IDX 1 1 2 2 3 3 4 4 5 5 13 6 14 7 15 8 19 9 20 10 21 11 22 12
REMARK SMILES IDX 6 14 7 15 11 16 8 17 10 18 9 19 12 20 16 21 17 22 18 23
REMARK H PARENT 22 13
ROOT
ATOM      1  O   UNL     1     118.635 152.975 118.511  1.00  0.00    -0.273 OA
ATOM      2  C   UNL     1     117.726 153.616 117.984  1.00  0.00     0.246 C 
ATOM      3  C   UNL     1     116.839 153.044 116.897  1.00  0.00     0.243 C 
ATOM      4  N   UNL     1     117.013 153.785 115.656  1.00  0.00    -0.274 NA
ATOM      5  C   UNL     1     116.585 154.996 115.574  1.00  0.00     0.076 C 
ATOM      6  C   UNL     1     115.965 155.795 116.675  1.00  0.00     0.031 A 
ATOM      7  C   UNL     1     114.951 156.712 116.338  1.00  0.00     0.098 A 
ATOM      8  C   UNL     1     114.464 157.608 117.297  1.00  0.00     0.270 A 
ATOM      9  C   UNL     1     114.987 157.612 118.593  1.00  0.00     0.088 A 
ATOM     10  C   UNL     1     115.983 156.694 118.931  1.00  0.00     0.034 A 
ATOM     11  C   UNL     1     116.454 155.759 117.995  1.00  0.00     0.051 A 
ATOM     12  N   UNL     1     117.418 154.858 118.471  1.00  0.00    -0.324 N 
ATOM     13  H   UNL     1     117.920 155.075 119.324  1.00  0.00     0.170 HD
ENDROOT
BRANCH   5  14
ATOM     14  C   UNL     1     116.787 155.670 114.265  1.00  0.00     0.019 A 
ATOM     15  C   UNL     1     117.992 156.357 114.062  1.00  0.00     0.012 A 
ATOM     16  C   UNL     1     115.826 155.612 113.250  1.00  0.00     0.050 A 
ATOM     17  C   UNL     1     118.228 156.994 112.845  1.00  0.00     0.001 A 
ATOM     18  C   UNL     1     116.070 156.254 112.035  1.00  0.00     0.021 A 
ATOM     19  C   UNL     1     117.269 156.945 111.833  1.00  0.00     0.002 A 
ATOM     20  Cl  UNL     1     114.307 154.819 113.462  1.00  0.00    -0.084 Cl
ENDBRANCH   5  14
BRANCH   8  21
ATOM     21  N   UNL     1     113.412 158.568 116.934  1.00  0.00     0.062 N 
ATOM     22  O   UNL     1     112.755 158.338 115.909  1.00  0.00    -0.258 OA
ATOM     23  O   UNL     1     113.244 159.544 117.676  1.00  0.00    -0.258 OA
ENDBRANCH   8  21
TORSDOF 2
ENDMDL
MODEL 8
REMARK VINA RESULT:    -6.929      4.208      6.450
REMARK INTER + INTRA:          -8.131
REMARK INTER:                  -7.455
REMARK INTRA:                  -0.676
REMARK UNBOUND:                -0.392
REMARK SMILES O=C1CN=C(c2ccccc2Cl)c2cc([N+](=O)[O-])ccc2N1
REMARK SMILES IDX 1 1 2 2 3 3 4 4 5 5 13 6 14 7 15 8 19 9 20 10 21 11 22 12
REMARK SMILES IDX 6 14 7 15 11 16 8 17 10 18 9 19 12 20 16 21 17 22 18 23
REMARK H PARENT 22 13
ROOT
ATOM      1  O   UNL     1     116.610 156.578 119.122  1.00  0.00    -0.273 OA
ATOM      2  C   UNL     1     116.750 156.946 117.955  1.00  0.00     0.246 C 
ATOM      3  C   UNL     1     117.179 158.351 117.582  1.00  0.00     0.243 C 
ATOM      4  N   UNL     1     116.126 159.024 116.837  1.00  0.00    -0.274 NA
ATOM      5  C   UNL     1     115.843 158.633 115.643  1.00  0.00     0.076 C 
ATOM      6  C   UNL     1     116.447 157.471 114.923  1.00  0.00     0.031 A 
ATOM      7  C   UNL     1     116.624 157.574 113.530  1.00  0.00     0.098 A 
ATOM      8  C   UNL     1     117.017 156.456 112.785  1.00  0.00     0.270 A 
ATOM      9  C   UNL     1     117.223 155.224 113.411  1.00  0.00     0.088 A 
ATOM     10  C   UNL     1     117.061 155.125 114.795  1.00  0.00     0.034 A 
ATOM     11  C   UNL     1     116.709 156.245 115.565  1.00  0.00     0.051 A 
ATOM     12  N   UNL     1     116.627 156.027 116.948  1.00  0.00    -0.324 N 
ATOM     13  H   UNL     1     116.544 155.080 117.296  1.00  0.00     0.170 HD
ENDROOT
BRANCH   5  14
ATOM     14  C   UNL     1     114.767 159.389 114.950  1.00  0.00     0.019 A 
ATOM     15  C   UNL     1     115.122 160.573 114.289  1.00  0.00     0.012 A 
ATOM     16  C   UNL     1     113.444 158.936 114.930  1.00  0.00     0.050 A 
ATOM     17  C   UNL     1     114.146 161.308 113.616  1.00  0.00     0.001 A 
ATOM     18  C   UNL     1     112.474 159.679 114.255  1.00  0.00     0.021 A 
ATOM     19  C   UNL     1     112.824 160.863 113.600  1.00  0.00     0.002 A 
ATOM     20  Cl  UNL     1     112.944 157.510 115.765  1.00  0.00    -0.084 Cl
ENDBRANCH   5  14
BRANCH   8  21
ATOM     21  N   UNL     1     117.190 156.571 111.330  1.00  0.00     0.062 N 
ATOM     22  O   UNL     1     118.244 157.071 110.915  1.00  0.00    -0.258 OA
ATOM     23  O   UNL     1     116.274 156.156 110.609  1.00  0.00    -0.258 OA
ENDBRANCH   8  21
TORSDOF 2
ENDMDL
MODEL 9
REMARK VINA RESULT:    -6.854      4.017      7.366
REMARK INTER + INTRA:          -8.048
REMARK INTER:                  -7.388
REMARK INTRA:                  -0.660
REMARK UNBOUND:                -0.392
REMARK SMILES O=C1CN=C(c2ccccc2Cl)c2cc([N+](=O)[O-])ccc2N1
REMARK SMILES IDX 1 1 2 2 3 3 4 4 5 5 13 6 14 7 15 8 19 9 20 10 21 11 22 12
REMARK SMILES IDX 6 14 7 15 11 16 8 17 10 18 9 19 12 20 16 21 17 22 18 23
REMARK H PARENT 22 13
ROOT
ATOM      1  O   UNL     1     115.841 156.104 114.561  1.00  0.00    -0.273 OA
ATOM      2  C   UNL     1     116.075 157.289 114.325  1.00  0.00     0.246 C 
ATOM      3  C   UNL     1     116.117 158.351 115.404  1.00  0.00     0.243 C 
ATOM      4  N   UNL     1     115.066 159.335 115.193  1.00  0.00    -0.274 NA
ATOM      5  C   UNL     1     115.142 160.139 114.191  1.00  0.00     0.076 C 
ATOM      6  C   UNL     1     116.194 160.138 113.128  1.00  0.00     0.031 A 
ATOM      7  C   UNL     1     116.585 161.376 112.582  1.00  0.00     0.098 A 
ATOM      8  C   UNL     1     117.431 161.418 111.467  1.00  0.00     0.270 A 
ATOM      9  C   UNL     1     117.883 160.236 110.876  1.00  0.00     0.088 A 
ATOM     10  C   UNL     1     117.506 159.008 111.425  1.00  0.00     0.034 A 
ATOM     11  C   UNL     1     116.693 158.946 112.569  1.00  0.00     0.051 A 
ATOM     12  N   UNL     1     116.427 157.657 113.053  1.00  0.00    -0.324 N 
ATOM     13  H   UNL     1     116.574 156.860 112.446  1.00  0.00     0.170 HD
ENDROOT
BRANCH   5  14
ATOM     14  C   UNL     1     114.035 161.123 114.062  1.00  0.00     0.019 A 
ATOM     15  C   UNL     1     112.924 160.760 113.289  1.00  0.00     0.012 A 
ATOM     16  C   UNL     1     114.077 162.366 114.703  1.00  0.00     0.050 A 
ATOM     17  C   UNL     1     111.858 161.648 113.150  1.00  0.00     0.001 A 
ATOM     18  C   UNL     1     113.005 163.250 114.557  1.00  0.00     0.021 A 
ATOM     19  C   UNL     1     111.899 162.891 113.781  1.00  0.00     0.002 A 
ATOM     20  Cl  UNL     1     115.439 162.883 115.629  1.00  0.00    -0.084 Cl
ENDBRANCH   5  14
BRANCH   8  21
ATOM     21  N   UNL     1     117.826 162.714 110.899  1.00  0.00     0.062 N 
ATOM     22  O   UNL     1     118.788 162.729 110.118  1.00  0.00    -0.258 OA
ATOM     23  O   UNL     1     117.171 163.710 111.231  1.00  0.00    -0.258 OA
ENDBRANCH   8  21
TORSDOF 2
ENDMDL
