MODEL 1
REMARK VINA RESULT:    -7.657      0.000      0.000
REMARK INTER + INTRA:          -7.773
REMARK INTER:                  -8.105
REMARK INTRA:                   0.332
REMARK UNBOUND:                 0.332
REMARK SMILES Cc1nnc2n1-c1ccc(Cl)cc1C(c1ccccc1)=NC2
REMARK SMILES IDX 1 1 2 2 3 3 4 4 5 5 6 6 7 7 8 8 9 9 10 10 11 11 12 12 13 13
REMARK SMILES IDX 14 14 21 15 22 16 15 17 16 18 20 19 17 20 19 21 18 22
REMARK H PARENT
ROOT
ATOM      1  C   UNL     1     141.817  95.620 130.745  1.00  0.00     0.090 C 
ATOM      2  C   UNL     1     142.891  96.359 131.449  1.00  0.00     0.134 A 
ATOM      3  N   UNL     1     144.175  96.084 131.335  1.00  0.00    -0.135 NA
ATOM      4  N   UNL     1     144.861  96.858 132.228  1.00  0.00    -0.133 NA
ATOM      5  C   UNL     1     143.989  97.600 132.875  1.00  0.00     0.159 A 
ATOM      6  N   UNL     1     142.720  97.358 132.395  1.00  0.00    -0.281 N 
ATOM      7  C   UNL     1     141.553  98.076 132.765  1.00  0.00     0.058 A 
ATOM      8  C   UNL     1     140.576  98.345 131.792  1.00  0.00     0.029 A 
ATOM      9  C   UNL     1     139.462  99.130 132.104  1.00  0.00     0.023 A 
ATOM     10  C   UNL     1     139.325  99.663 133.381  1.00  0.00     0.041 A 
ATOM     11  Cl  UNL     1     137.964 100.645 133.755  1.00  0.00    -0.084 Cl
ATOM     12  C   UNL     1     140.282  99.405 134.358  1.00  0.00     0.033 A 
ATOM     13  C   UNL     1     141.394  98.593 134.067  1.00  0.00     0.026 A 
ATOM     14  C   UNL     1     142.313  98.265 135.206  1.00  0.00     0.075 C 
ATOM     15  N   UNL     1     143.601  98.299 135.148  1.00  0.00    -0.276 NA
ATOM     16  C   UNL     1     144.273  98.629 133.900  1.00  0.00     0.220 C 
ENDROOT
BRANCH  14  17
ATOM     17  C   UNL     1     141.706  97.865 136.518  1.00  0.00     0.000 A 
ATOM     18  C   UNL     1     142.437  97.037 137.379  1.00  0.00     0.010 A 
ATOM     19  C   UNL     1     140.417  98.277 136.879  1.00  0.00     0.010 A 
ATOM     20  C   UNL     1     141.894  96.649 138.605  1.00  0.00     0.001 A 
ATOM     21  C   UNL     1     139.879  97.886 138.107  1.00  0.00     0.001 A 
ATOM     22  C   UNL     1     140.618  97.077 138.970  1.00  0.00     0.000 A 
ENDBRANCH  14  17
TORSDOF 1
ENDMDL
MODEL 2
REMARK VINA RESULT:    -7.621      3.331      5.072
REMARK INTER + INTRA:          -7.735
REMARK INTER:                  -7.326
REMARK INTRA:                  -0.409
REMARK UNBOUND:                 0.332
REMARK SMILES Cc1nnc2n1-c1ccc(Cl)cc1C(c1ccccc1)=NC2
REMARK SMILES IDX 1 1 2 2 3 3 4 4 5 5 6 6 7 7 8 8 9 9 10 10 11 11 12 12 13 13
REMARK SMILES IDX 14 14 21 15 22 16 15 17 16 18 20 19 17 20 19 21 18 22
REMARK H PARENT
ROOT
ATOM      1  C   UNL     1     139.114  97.685 133.994  1.00  0.00     0.090 C 
ATOM      2  C   UNL     1     140.445  98.290 133.754  1.00  0.00     0.134 A 
ATOM      3  N   UNL     1     140.748  99.016 132.697  1.00  0.00    -0.135 NA
ATOM      4  N   UNL     1     142.087  99.284 132.728  1.00  0.00    -0.133 NA
ATOM      5  C   UNL     1     142.587  98.720 133.806  1.00  0.00     0.159 A 
ATOM      6  N   UNL     1     141.584  98.107 134.524  1.00  0.00    -0.281 N 
ATOM      7  C   UNL     1     141.735  97.518 135.806  1.00  0.00     0.058 A 
ATOM      8  C   UNL     1     140.695  97.638 136.743  1.00  0.00     0.029 A 
ATOM      9  C   UNL     1     140.853  97.151 138.043  1.00  0.00     0.023 A 
ATOM     10  C   UNL     1     142.051  96.556 138.421  1.00  0.00     0.041 A 
ATOM     11  Cl  UNL     1     142.249  95.975 140.027  1.00  0.00    -0.084 Cl
ATOM     12  C   UNL     1     143.091  96.425 137.504  1.00  0.00     0.033 A 
ATOM     13  C   UNL     1     142.937  96.885 136.183  1.00  0.00     0.026 A 
ATOM     14  C   UNL     1     144.057  96.598 135.228  1.00  0.00     0.075 C 
ATOM     15  N   UNL     1     144.548  97.447 134.390  1.00  0.00    -0.276 NA
ATOM     16  C   UNL     1     143.987  98.786 134.284  1.00  0.00     0.220 C 
ENDROOT
BRANCH  14  17
ATOM     17  C   UNL     1     144.663  95.226 135.233  1.00  0.00     0.000 A 
ATOM     18  C   UNL     1     144.043  94.207 134.499  1.00  0.00     0.010 A 
ATOM     19  C   UNL     1     145.814  94.943 135.980  1.00  0.00     0.010 A 
ATOM     20  C   UNL     1     144.587  92.922 134.489  1.00  0.00     0.001 A 
ATOM     21  C   UNL     1     146.354  93.655 135.965  1.00  0.00     0.001 A 
ATOM     22  C   UNL     1     145.744  92.648 135.217  1.00  0.00     0.000 A 
ENDBRANCH  14  17
TORSDOF 1
ENDMDL
MODEL 3
REMARK VINA RESULT:    -7.354      3.161      6.054
REMARK INTER + INTRA:          -7.452
REMARK INTER:                  -6.981
REMARK INTRA:                  -0.472
REMARK UNBOUND:                 0.332
REMARK SMILES Cc1nnc2n1-c1ccc(Cl)cc1C(c1ccccc1)=NC2
REMARK SMILES IDX 1 1 2 2 3 3 4 4 5 5 6 6 7 7 8 8 9 9 10 10 11 11 12 12 13 13
REMARK SMILES IDX 14 14 21 15 22 16 15 17 16 18 20 19 17 20 19 21 18 22
REMARK H PARENT
ROOT
ATOM      1  C   UNL     1     141.546  95.876 137.285  1.00  0.00     0.090 C 
ATOM      2  C   UNL     1     141.110  97.192 136.763  1.00  0.00     0.134 A 
ATOM      3  N   UNL     1     140.579  98.143 137.505  1.00  0.00    -0.135 NA
ATOM      4  N   UNL     1     140.163  99.151 136.681  1.00  0.00    -0.133 NA
ATOM      5  C   UNL     1     140.449  98.805 135.444  1.00  0.00     0.159 A 
ATOM      6  N   UNL     1     141.090  97.586 135.434  1.00  0.00    -0.281 N 
ATOM      7  C   UNL     1     141.663  96.970 134.290  1.00  0.00     0.058 A 
ATOM      8  C   UNL     1     142.864  96.254 134.426  1.00  0.00     0.029 A 
ATOM      9  C   UNL     1     143.500  95.718 133.302  1.00  0.00     0.023 A 
ATOM     10  C   UNL     1     142.951  95.905 132.039  1.00  0.00     0.041 A 
ATOM     11  Cl  UNL     1     143.747  95.261 130.658  1.00  0.00    -0.084 Cl
ATOM     12  C   UNL     1     141.760  96.609 131.886  1.00  0.00     0.033 A 
ATOM     13  C   UNL     1     141.093  97.130 133.011  1.00  0.00     0.026 A 
ATOM     14  C   UNL     1     139.757  97.768 132.773  1.00  0.00     0.075 C 
ATOM     15  N   UNL     1     139.370  98.885 133.291  1.00  0.00    -0.276 NA
ATOM     16  C   UNL     1     140.232  99.605 134.217  1.00  0.00     0.220 C 
ENDROOT
BRANCH  14  17
ATOM     17  C   UNL     1     138.784  97.070 131.870  1.00  0.00     0.000 A 
ATOM     18  C   UNL     1     138.282  97.754 130.755  1.00  0.00     0.010 A 
ATOM     19  C   UNL     1     138.349  95.767 132.140  1.00  0.00     0.010 A 
ATOM     20  C   UNL     1     137.375  97.126 129.901  1.00  0.00     0.001 A 
ATOM     21  C   UNL     1     137.440  95.144 131.280  1.00  0.00     0.001 A 
ATOM     22  C   UNL     1     136.958  95.821 130.161  1.00  0.00     0.000 A 
ENDBRANCH  14  17
TORSDOF 1
ENDMDL
MODEL 4
REMARK VINA RESULT:    -7.342      3.237      4.752
REMARK INTER + INTRA:          -7.439
REMARK INTER:                  -7.090
REMARK INTRA:                  -0.349
REMARK UNBOUND:                 0.332
REMARK SMILES Cc1nnc2n1-c1ccc(Cl)cc1C(c1ccccc1)=NC2
REMARK SMILES IDX 1 1 2 2 3 3 4 4 5 5 6 6 7 7 8 8 9 9 10 10 11 11 12 12 13 13
REMARK SMILES IDX 14 14 21 15 22 16 15 17 16 18 20 19 17 20 19 21 18 22
REMARK H PARENT
ROOT
ATOM      1  C   UNL     1     143.582  99.040 132.619  1.00  0.00     0.090 C 
ATOM      2  C   UNL     1     142.280  98.714 133.246  1.00  0.00     0.134 A 
ATOM      3  N   UNL     1     141.207  99.474 133.160  1.00  0.00    -0.135 NA
ATOM      4  N   UNL     1     140.241  98.948 133.972  1.00  0.00    -0.133 NA
ATOM      5  C   UNL     1     140.735  97.870 134.541  1.00  0.00     0.159 A 
ATOM      6  N   UNL     1     142.016  97.645 134.088  1.00  0.00    -0.281 N 
ATOM      7  C   UNL     1     142.801  96.500 134.384  1.00  0.00     0.058 A 
ATOM      8  C   UNL     1     143.636  95.964 133.390  1.00  0.00     0.029 A 
ATOM      9  C   UNL     1     144.348  94.784 133.622  1.00  0.00     0.023 A 
ATOM     10  C   UNL     1     144.220  94.125 134.839  1.00  0.00     0.041 A 
ATOM     11  Cl  UNL     1     145.082  92.663 135.114  1.00  0.00    -0.084 Cl
ATOM     12  C   UNL     1     143.400  94.643 135.838  1.00  0.00     0.033 A 
ATOM     13  C   UNL     1     142.699  95.845 135.629  1.00  0.00     0.026 A 
ATOM     14  C   UNL     1     141.934  96.397 136.795  1.00  0.00     0.075 C 
ATOM     15  N   UNL     1     140.736  96.870 136.734  1.00  0.00    -0.276 NA
ATOM     16  C   UNL     1     140.036  96.942 135.459  1.00  0.00     0.220 C 
ENDROOT
BRANCH  14  17
ATOM     17  C   UNL     1     142.597  96.409 138.140  1.00  0.00     0.000 A 
ATOM     18  C   UNL     1     141.850  96.046 139.268  1.00  0.00     0.010 A 
ATOM     19  C   UNL     1     143.932  96.807 138.289  1.00  0.00     0.010 A 
ATOM     20  C   UNL     1     142.444  96.051 140.531  1.00  0.00     0.001 A 
ATOM     21  C   UNL     1     144.520  96.809 139.556  1.00  0.00     0.001 A 
ATOM     22  C   UNL     1     143.779  96.428 140.674  1.00  0.00     0.000 A 
ENDBRANCH  14  17
TORSDOF 1
ENDMDL
MODEL 5
REMARK VINA RESULT:    -7.123      5.104      8.823
REMARK INTER + INTRA:          -7.208
REMARK INTER:                  -7.185
REMARK INTRA:                  -0.023
REMARK UNBOUND:                 0.332
REMARK SMILES Cc1nnc2n1-c1ccc(Cl)cc1C(c1ccccc1)=NC2
REMARK SMILES IDX 1 1 2 2 3 3 4 4 5 5 6 6 7 7 8 8 9 9 10 10 11 11 12 12 13 13
REMARK SMILES IDX 14 14 21 15 22 16 15 17 16 18 20 19 17 20 19 21 18 22
REMARK H PARENT
ROOT
ATOM      1  C   UNL     1     143.401  99.532 144.496  1.00  0.00     0.090 C 
ATOM      2  C   UNL     1     144.377  98.979 143.529  1.00  0.00     0.134 A 
ATOM      3  N   UNL     1     145.568  99.496 143.301  1.00  0.00    -0.135 NA
ATOM      4  N   UNL     1     146.135  98.826 142.254  1.00  0.00    -0.133 NA
ATOM      5  C   UNL     1     145.286  97.903 141.857  1.00  0.00     0.159 A 
ATOM      6  N   UNL     1     144.164  97.922 142.656  1.00  0.00    -0.281 N 
ATOM      7  C   UNL     1     143.104  96.980 142.604  1.00  0.00     0.058 A 
ATOM      8  C   UNL     1     142.485  96.577 143.799  1.00  0.00     0.029 A 
ATOM      9  C   UNL     1     141.504  95.581 143.788  1.00  0.00     0.023 A 
ATOM     10  C   UNL     1     141.146  94.973 142.590  1.00  0.00     0.041 A 
ATOM     11  Cl  UNL     1     139.953  93.736 142.584  1.00  0.00    -0.084 Cl
ATOM     12  C   UNL     1     141.746  95.363 141.396  1.00  0.00     0.033 A 
ATOM     13  C   UNL     1     142.716  96.383 141.388  1.00  0.00     0.026 A 
ATOM     14  C   UNL     1     143.224  96.826 140.048  1.00  0.00     0.075 C 
ATOM     15  N   UNL     1     144.464  97.039 139.763  1.00  0.00    -0.276 NA
ATOM     16  C   UNL     1     145.489  96.900 140.787  1.00  0.00     0.220 C 
ENDROOT
BRANCH  14  17
ATOM     17  C   UNL     1     142.231  97.043 138.945  1.00  0.00     0.000 A 
ATOM     18  C   UNL     1     142.689  97.110 137.623  1.00  0.00     0.010 A 
ATOM     19  C   UNL     1     140.867  97.211 139.217  1.00  0.00     0.010 A 
ATOM     20  C   UNL     1     141.785  97.312 136.580  1.00  0.00     0.001 A 
ATOM     21  C   UNL     1     139.968  97.413 138.168  1.00  0.00     0.001 A 
ATOM     22  C   UNL     1     140.426  97.459 136.852  1.00  0.00     0.000 A 
ENDBRANCH  14  17
TORSDOF 1
ENDMDL
MODEL 6
REMARK VINA RESULT:    -6.793      2.926      5.142
REMARK INTER + INTRA:          -6.859
REMARK INTER:                  -6.370
REMARK INTRA:                  -0.489
REMARK UNBOUND:                 0.332
REMARK SMILES Cc1nnc2n1-c1ccc(Cl)cc1C(c1ccccc1)=NC2
REMARK SMILES IDX 1 1 2 2 3 3 4 4 5 5 6 6 7 7 8 8 9 9 10 10 11 11 12 12 13 13
REMARK SMILES IDX 14 14 21 15 22 16 15 17 16 18 20 19 17 20 19 21 18 22
REMARK H PARENT
ROOT
ATOM      1  C   UNL     1     138.411  96.185 133.136  1.00  0.00     0.090 C 
ATOM      2  C   UNL     1     139.359  97.040 132.385  1.00  0.00     0.134 A 
ATOM      3  N   UNL     1     139.141  97.494 131.167  1.00  0.00    -0.135 NA
ATOM      4  N   UNL     1     140.276  98.117 130.730  1.00  0.00    -0.133 NA
ATOM      5  C   UNL     1     141.173  98.041 131.689  1.00  0.00     0.159 A 
ATOM      6  N   UNL     1     140.636  97.402 132.785  1.00  0.00    -0.281 N 
ATOM      7  C   UNL     1     141.272  97.263 134.046  1.00  0.00     0.058 A 
ATOM      8  C   UNL     1     140.500  97.351 135.217  1.00  0.00     0.029 A 
ATOM      9  C   UNL     1     141.112  97.313 136.473  1.00  0.00     0.023 A 
ATOM     10  C   UNL     1     142.494  97.202 136.569  1.00  0.00     0.041 A 
ATOM     11  Cl  UNL     1     143.244  97.175 138.116  1.00  0.00    -0.084 Cl
ATOM     12  C   UNL     1     143.274  97.111 135.420  1.00  0.00     0.033 A 
ATOM     13  C   UNL     1     142.671  97.120 134.148  1.00  0.00     0.026 A 
ATOM     14  C   UNL     1     143.568  96.896 132.968  1.00  0.00     0.075 C 
ATOM     15  N   UNL     1     143.530  97.575 131.873  1.00  0.00    -0.276 NA
ATOM     16  C   UNL     1     142.535  98.622 131.690  1.00  0.00     0.220 C 
ENDROOT
BRANCH  14  17
ATOM     17  C   UNL     1     144.593  95.803 133.050  1.00  0.00     0.000 A 
ATOM     18  C   UNL     1     144.163  94.478 133.190  1.00  0.00     0.010 A 
ATOM     19  C   UNL     1     145.964  96.089 133.020  1.00  0.00     0.010 A 
ATOM     20  C   UNL     1     145.097  93.444 133.270  1.00  0.00     0.001 A 
ATOM     21  C   UNL     1     146.894  95.049 133.099  1.00  0.00     0.001 A 
ATOM     22  C   UNL     1     146.460  93.730 133.219  1.00  0.00     0.000 A 
ENDBRANCH  14  17
TORSDOF 1
ENDMDL
MODEL 7
REMARK VINA RESULT:    -6.675      1.514      1.996
REMARK INTER + INTRA:          -6.734
REMARK INTER:                  -6.236
REMARK INTRA:                  -0.498
REMARK UNBOUND:                 0.332
REMARK SMILES Cc1nnc2n1-c1ccc(Cl)cc1C(c1ccccc1)=NC2
REMARK SMILES IDX 1 1 2 2 3 3 4 4 5 5 6 6 7 7 8 8 9 9 10 10 11 11 12 12 13 13
REMARK SMILES IDX 14 14 21 15 22 16 15 17 16 18 20 19 17 20 19 21 18 22
REMARK H PARENT
ROOT
ATOM      1  C   UNL     1     139.354  95.510 130.534  1.00  0.00     0.090 C 
ATOM      2  C   UNL     1     140.790  95.862 130.639  1.00  0.00     0.134 A 
ATOM      3  N   UNL     1     141.745  95.291 129.934  1.00  0.00    -0.135 NA
ATOM      4  N   UNL     1     142.949  95.750 130.389  1.00  0.00    -0.133 NA
ATOM      5  C   UNL     1     142.715  96.600 131.365  1.00  0.00     0.159 A 
ATOM      6  N   UNL     1     141.357  96.746 131.545  1.00  0.00    -0.281 N 
ATOM      7  C   UNL     1     140.741  97.681 132.417  1.00  0.00     0.058 A 
ATOM      8  C   UNL     1     139.547  98.305 132.020  1.00  0.00     0.029 A 
ATOM      9  C   UNL     1     138.969  99.299 132.816  1.00  0.00     0.023 A 
ATOM     10  C   UNL     1     139.585  99.685 134.001  1.00  0.00     0.041 A 
ATOM     11  Cl  UNL     1     138.881 100.922 134.966  1.00  0.00    -0.084 Cl
ATOM     12  C   UNL     1     140.767  99.075 134.411  1.00  0.00     0.033 A 
ATOM     13  C   UNL     1     141.346  98.053 133.635  1.00  0.00     0.026 A 
ATOM     14  C   UNL     1     142.550  97.366 134.206  1.00  0.00     0.075 C 
ATOM     15  N   UNL     1     143.621  97.083 133.545  1.00  0.00    -0.276 NA
ATOM     16  C   UNL     1     143.712  97.388 132.125  1.00  0.00     0.220 C 
ENDROOT
BRANCH  14  17
ATOM     17  C   UNL     1     142.525  96.969 135.653  1.00  0.00     0.000 A 
ATOM     18  C   UNL     1     141.634  95.971 136.067  1.00  0.00     0.010 A 
ATOM     19  C   UNL     1     143.349  97.599 136.593  1.00  0.00     0.010 A 
ATOM     20  C   UNL     1     141.591  95.586 137.408  1.00  0.00     0.001 A 
ATOM     21  C   UNL     1     143.302  97.208 137.934  1.00  0.00     0.001 A 
ATOM     22  C   UNL     1     142.427  96.201 138.338  1.00  0.00     0.000 A 
ENDBRANCH  14  17
TORSDOF 1
ENDMDL
MODEL 8
REMARK VINA RESULT:    -6.671      2.776      5.160
REMARK INTER + INTRA:          -6.729
REMARK INTER:                  -6.330
REMARK INTRA:                  -0.400
REMARK UNBOUND:                 0.332
REMARK SMILES Cc1nnc2n1-c1ccc(Cl)cc1C(c1ccccc1)=NC2
REMARK SMILES IDX 1 1 2 2 3 3 4 4 5 5 6 6 7 7 8 8 9 9 10 10 11 11 12 12 13 13
REMARK SMILES IDX 14 14 21 15 22 16 15 17 16 18 20 19 17 20 19 21 18 22
REMARK H PARENT
ROOT
ATOM      1  C   UNL     1     145.459  94.982 135.893  1.00  0.00     0.090 C 
ATOM      2  C   UNL     1     144.453  94.281 135.060  1.00  0.00     0.134 A 
ATOM      3  N   UNL     1     144.735  93.300 134.227  1.00  0.00    -0.135 NA
ATOM      4  N   UNL     1     143.605  92.994 133.523  1.00  0.00    -0.133 NA
ATOM      5  C   UNL     1     142.643  93.789 133.938  1.00  0.00     0.159 A 
ATOM      6  N   UNL     1     143.109  94.605 134.946  1.00  0.00    -0.281 N 
ATOM      7  C   UNL     1     142.314  95.490 135.718  1.00  0.00     0.058 A 
ATOM      8  C   UNL     1     142.598  95.653 137.085  1.00  0.00     0.029 A 
ATOM      9  C   UNL     1     141.774  96.444 137.890  1.00  0.00     0.023 A 
ATOM     10  C   UNL     1     140.657  97.065 137.342  1.00  0.00     0.041 A 
ATOM     11  Cl  UNL     1     139.636  98.022 138.341  1.00  0.00    -0.084 Cl
ATOM     12  C   UNL     1     140.363  96.918 135.990  1.00  0.00     0.033 A 
ATOM     13  C   UNL     1     141.198  96.147 135.160  1.00  0.00     0.026 A 
ATOM     14  C   UNL     1     140.880  96.138 133.695  1.00  0.00     0.075 C 
ATOM     15  N   UNL     1     140.869  95.086 132.949  1.00  0.00    -0.276 NA
ATOM     16  C   UNL     1     141.228  93.788 133.500  1.00  0.00     0.220 C 
ENDROOT
BRANCH  14  17
ATOM     17  C   UNL     1     140.546  97.441 133.030  1.00  0.00     0.000 A 
ATOM     18  C   UNL     1     139.201  97.792 132.862  1.00  0.00     0.010 A 
ATOM     19  C   UNL     1     141.551  98.290 132.549  1.00  0.00     0.010 A 
ATOM     20  C   UNL     1     138.865  98.998 132.245  1.00  0.00     0.001 A 
ATOM     21  C   UNL     1     141.209  99.495 131.933  1.00  0.00     0.001 A 
ATOM     22  C   UNL     1     139.868  99.850 131.785  1.00  0.00     0.000 A 
ENDBRANCH  14  17
TORSDOF 1
ENDMDL
MODEL 9
REMARK VINA RESULT:    -6.653      2.219      2.734
REMARK INTER + INTRA:          -6.710
REMARK INTER:                  -6.362
REMARK INTRA:                  -0.348
REMARK UNBOUND:                 0.332
REMARK SMILES Cc1nnc2n1-c1ccc(Cl)cc1C(c1ccccc1)=NC2
REMARK SMILES IDX 1 1 2 2 3 3 4 4 5 5 6 6 7 7 8 8 9 9 10 10 11 11 12 12 13 13
REMARK SMILES IDX 14 14 21 15 22 16 15 17 16 18 20 19 17 20 19 21 18 22
REMARK H PARENT
ROOT
ATOM      1  C   UNL     1     144.492  92.954 133.434  1.00  0.00     0.090 C 
ATOM      2  C   UNL     1     144.836  94.395 133.457  1.00  0.00     0.134 A 
ATOM      3  N   UNL     1     146.066  94.862 133.529  1.00  0.00    -0.135 NA
ATOM      4  N   UNL     1     146.004  96.218 133.678  1.00  0.00    -0.133 NA
ATOM      5  C   UNL     1     144.736  96.566 133.691  1.00  0.00     0.159 A 
ATOM      6  N   UNL     1     143.942  95.454 133.513  1.00  0.00    -0.281 N 
ATOM      7  C   UNL     1     142.534  95.471 133.339  1.00  0.00     0.058 A 
ATOM      8  C   UNL     1     141.941  94.561 132.448  1.00  0.00     0.029 A 
ATOM      9  C   UNL     1     140.569  94.617 132.186  1.00  0.00     0.023 A 
ATOM     10  C   UNL     1     139.785  95.588 132.797  1.00  0.00     0.041 A 
ATOM     11  Cl  UNL     1     138.101  95.666 132.457  1.00  0.00    -0.084 Cl
ATOM     12  C   UNL     1     140.355  96.497 133.685  1.00  0.00     0.033 A 
ATOM     13  C   UNL     1     141.729  96.435 133.981  1.00  0.00     0.026 A 
ATOM     14  C   UNL     1     142.240  97.370 135.036  1.00  0.00     0.075 C 
ATOM     15  N   UNL     1     143.324  98.062 134.947  1.00  0.00    -0.276 NA
ATOM     16  C   UNL     1     144.183  97.937 133.779  1.00  0.00     0.220 C 
ENDROOT
BRANCH  14  17
ATOM     17  C   UNL     1     141.443  97.523 136.298  1.00  0.00     0.000 A 
ATOM     18  C   UNL     1     141.703  96.665 137.374  1.00  0.00     0.010 A 
ATOM     19  C   UNL     1     140.429  98.483 136.405  1.00  0.00     0.010 A 
ATOM     20  C   UNL     1     140.974  96.787 138.557  1.00  0.00     0.001 A 
ATOM     21  C   UNL     1     139.703  98.601 137.593  1.00  0.00     0.001 A 
ATOM     22  C   UNL     1     139.979  97.757 138.668  1.00  0.00     0.000 A 
ENDBRANCH  14  17
TORSDOF 1
ENDMDL
