MODEL 1
REMARK VINA RESULT:   -10.155      0.000      0.000
REMARK INTER + INTRA:         -10.472
REMARK INTER:                 -10.749
REMARK INTRA:                   0.277
REMARK UNBOUND:                 0.277
REMARK SMILES CN1C(=O)CN=C(c2ccccc2)c2cc(Cl)ccc21
REMARK SMILES IDX 1 1 2 2 3 3 4 4 5 5 6 6 7 7 14 8 15 9 16 10 17 11 18 12
REMARK SMILES IDX 19 13 20 14 8 15 9 16 13 17 10 18 12 19 11 20
REMARK H PARENT
ROOT
ATOM      1  C   UNL     1     116.920 160.685 111.931  1.00  0.00     0.153 C 
ATOM      2  N   UNL     1     117.616 159.438 111.642  1.00  0.00    -0.313 N 
ATOM      3  C   UNL     1     117.329 158.347 112.472  1.00  0.00     0.248 C 
ATOM      4  O   UNL     1     116.478 158.403 113.365  1.00  0.00    -0.272 OA
ATOM      5  C   UNL     1     118.179 157.098 112.293  1.00  0.00     0.243 C 
ATOM      6  N   UNL     1     117.797 156.436 111.050  1.00  0.00    -0.274 NA
ATOM      7  C   UNL     1     118.115 157.009 109.938  1.00  0.00     0.075 C 
ATOM      8  C   UNL     1     118.908 158.271 109.843  1.00  0.00     0.026 A 
ATOM      9  C   UNL     1     119.953 158.295 108.899  1.00  0.00     0.033 A 
ATOM     10  C   UNL     1     120.660 159.469 108.669  1.00  0.00     0.041 A 
ATOM     11  Cl  UNL     1     121.922 159.495 107.503  1.00  0.00    -0.084 Cl
ATOM     12  C   UNL     1     120.341 160.624 109.370  1.00  0.00     0.023 A 
ATOM     13  C   UNL     1     119.322 160.596 110.328  1.00  0.00     0.028 A 
ATOM     14  C   UNL     1     118.604 159.417 110.607  1.00  0.00     0.053 A 
ENDROOT
BRANCH   7  15
ATOM     15  C   UNL     1     117.656 156.350 108.673  1.00  0.00     0.000 A 
ATOM     16  C   UNL     1     116.364 155.814 108.615  1.00  0.00     0.010 A 
ATOM     17  C   UNL     1     118.483 156.288 107.544  1.00  0.00     0.010 A 
ATOM     18  C   UNL     1     115.913 155.195 107.449  1.00  0.00     0.001 A 
ATOM     19  C   UNL     1     118.028 155.668 106.379  1.00  0.00     0.001 A 
ATOM     20  C   UNL     1     116.747 155.118 106.333  1.00  0.00     0.000 A 
ENDBRANCH   7  15
TORSDOF 1
ENDMDL
MODEL 2
REMARK VINA RESULT:    -9.439      2.987      5.985
REMARK INTER + INTRA:          -9.713
REMARK INTER:                  -9.949
REMARK INTRA:                   0.235
REMARK UNBOUND:                 0.277
REMARK SMILES CN1C(=O)CN=C(c2ccccc2)c2cc(Cl)ccc21
REMARK SMILES IDX 1 1 2 2 3 3 4 4 5 5 6 6 7 7 14 8 15 9 16 10 17 11 18 12
REMARK SMILES IDX 19 13 20 14 8 15 9 16 13 17 10 18 12 19 11 20
REMARK H PARENT
ROOT
ATOM      1  C   UNL     1     117.778 156.995 106.885  1.00  0.00     0.153 C 
ATOM      2  N   UNL     1     118.526 157.603 107.977  1.00  0.00    -0.313 N 
ATOM      3  C   UNL     1     119.537 158.506 107.624  1.00  0.00     0.248 C 
ATOM      4  O   UNL     1     119.749 158.835 106.453  1.00  0.00    -0.272 OA
ATOM      5  C   UNL     1     120.439 159.007 108.742  1.00  0.00     0.243 C 
ATOM      6  N   UNL     1     119.692 159.945 109.573  1.00  0.00    -0.274 NA
ATOM      7  C   UNL     1     118.752 159.474 110.321  1.00  0.00     0.075 C 
ATOM      8  C   UNL     1     118.428 158.021 110.442  1.00  0.00     0.026 A 
ATOM      9  C   UNL     1     118.231 157.520 111.744  1.00  0.00     0.033 A 
ATOM     10  C   UNL     1     117.812 156.209 111.932  1.00  0.00     0.041 A 
ATOM     11  Cl  UNL     1     117.557 155.610 113.523  1.00  0.00    -0.084 Cl
ATOM     12  C   UNL     1     117.587 155.385 110.838  1.00  0.00     0.023 A 
ATOM     13  C   UNL     1     117.808 155.871 109.545  1.00  0.00     0.028 A 
ATOM     14  C   UNL     1     118.259 157.186 109.319  1.00  0.00     0.053 A 
ENDROOT
BRANCH   7  15
ATOM     15  C   UNL     1     117.952 160.460 111.117  1.00  0.00     0.000 A 
ATOM     16  C   UNL     1     118.185 161.828 110.936  1.00  0.00     0.010 A 
ATOM     17  C   UNL     1     116.959 160.038 112.009  1.00  0.00     0.010 A 
ATOM     18  C   UNL     1     117.453 162.766 111.664  1.00  0.00     0.001 A 
ATOM     19  C   UNL     1     116.228 160.980 112.736  1.00  0.00     0.001 A 
ATOM     20  C   UNL     1     116.478 162.342 112.568  1.00  0.00     0.000 A 
ENDBRANCH   7  15
TORSDOF 1
ENDMDL
MODEL 3
REMARK VINA RESULT:    -9.249      2.543      3.352
REMARK INTER + INTRA:          -9.512
REMARK INTER:                  -9.036
REMARK INTRA:                  -0.477
REMARK UNBOUND:                 0.277
REMARK SMILES CN1C(=O)CN=C(c2ccccc2)c2cc(Cl)ccc21
REMARK SMILES IDX 1 1 2 2 3 3 4 4 5 5 6 6 7 7 14 8 15 9 16 10 17 11 18 12
REMARK SMILES IDX 19 13 20 14 8 15 9 16 13 17 10 18 12 19 11 20
REMARK H PARENT
ROOT
ATOM      1  C   UNL     1     114.537 156.751 114.556  1.00  0.00     0.153 C 
ATOM      2  N   UNL     1     115.792 156.527 113.850  1.00  0.00    -0.313 N 
ATOM      3  C   UNL     1     116.422 155.293 114.057  1.00  0.00     0.248 C 
ATOM      4  O   UNL     1     115.917 154.401 114.745  1.00  0.00    -0.272 OA
ATOM      5  C   UNL     1     117.815 155.120 113.470  1.00  0.00     0.243 C 
ATOM      6  N   UNL     1     117.708 154.985 112.021  1.00  0.00    -0.274 NA
ATOM      7  C   UNL     1     117.373 156.029 111.340  1.00  0.00     0.075 C 
ATOM      8  C   UNL     1     117.156 157.382 111.934  1.00  0.00     0.026 A 
ATOM      9  C   UNL     1     117.747 158.472 111.266  1.00  0.00     0.033 A 
ATOM     10  C   UNL     1     117.495 159.771 111.688  1.00  0.00     0.041 A 
ATOM     11  Cl  UNL     1     118.206 161.097 110.856  1.00  0.00    -0.084 Cl
ATOM     12  C   UNL     1     116.661 160.002 112.773  1.00  0.00     0.023 A 
ATOM     13  C   UNL     1     116.094 158.921 113.456  1.00  0.00     0.028 A 
ATOM     14  C   UNL     1     116.351 157.590 113.072  1.00  0.00     0.053 A 
ENDROOT
BRANCH   7  15
ATOM     15  C   UNL     1     117.203 155.856 109.861  1.00  0.00     0.000 A 
ATOM     16  C   UNL     1     115.929 156.007 109.302  1.00  0.00     0.010 A 
ATOM     17  C   UNL     1     118.296 155.578 109.031  1.00  0.00     0.010 A 
ATOM     18  C   UNL     1     115.744 155.851 107.927  1.00  0.00     0.001 A 
ATOM     19  C   UNL     1     118.107 155.423 107.657  1.00  0.00     0.001 A 
ATOM     20  C   UNL     1     116.832 155.554 107.107  1.00  0.00     0.000 A 
ENDBRANCH   7  15
TORSDOF 1
ENDMDL
MODEL 4
REMARK VINA RESULT:    -8.829      1.854      4.711
REMARK INTER + INTRA:          -9.068
REMARK INTER:                  -8.980
REMARK INTRA:                  -0.088
REMARK UNBOUND:                 0.277
REMARK SMILES CN1C(=O)CN=C(c2ccccc2)c2cc(Cl)ccc21
REMARK SMILES IDX 1 1 2 2 3 3 4 4 5 5 6 6 7 7 14 8 15 9 16 10 17 11 18 12
REMARK SMILES IDX 19 13 20 14 8 15 9 16 13 17 10 18 12 19 11 20
REMARK H PARENT
ROOT
ATOM      1  C   UNL     1     118.034 155.987 113.491  1.00  0.00     0.153 C 
ATOM      2  N   UNL     1     117.600 157.084 112.636  1.00  0.00    -0.313 N 
ATOM      3  C   UNL     1     117.100 158.224 113.277  1.00  0.00     0.248 C 
ATOM      4  O   UNL     1     117.086 158.339 114.506  1.00  0.00    -0.272 OA
ATOM      5  C   UNL     1     116.479 159.298 112.395  1.00  0.00     0.243 C 
ATOM      6  N   UNL     1     117.539 159.993 111.673  1.00  0.00    -0.274 NA
ATOM      7  C   UNL     1     118.155 159.350 110.738  1.00  0.00     0.075 C 
ATOM      8  C   UNL     1     117.804 157.966 110.303  1.00  0.00     0.026 A 
ATOM      9  C   UNL     1     117.724 157.737 108.915  1.00  0.00     0.033 A 
ATOM     10  C   UNL     1     117.519 156.452 108.430  1.00  0.00     0.041 A 
ATOM     11  Cl  UNL     1     117.440 156.177 106.735  1.00  0.00    -0.084 Cl
ATOM     12  C   UNL     1     117.388 155.386 109.310  1.00  0.00     0.023 A 
ATOM     13  C   UNL     1     117.439 155.614 110.689  1.00  0.00     0.028 A 
ATOM     14  C   UNL     1     117.619 156.908 111.216  1.00  0.00     0.053 A 
ENDROOT
BRANCH   7  15
ATOM     15  C   UNL     1     119.286 160.056 110.053  1.00  0.00     0.000 A 
ATOM     16  C   UNL     1     119.349 161.453 110.111  1.00  0.00     0.010 A 
ATOM     17  C   UNL     1     120.290 159.344 109.386  1.00  0.00     0.010 A 
ATOM     18  C   UNL     1     120.392 162.135 109.481  1.00  0.00     0.001 A 
ATOM     19  C   UNL     1     121.332 160.029 108.758  1.00  0.00     0.001 A 
ATOM     20  C   UNL     1     121.380 161.422 108.801  1.00  0.00     0.000 A 
ENDBRANCH   7  15
TORSDOF 1
ENDMDL
MODEL 5
REMARK VINA RESULT:    -8.305      3.121      5.002
REMARK INTER + INTRA:          -8.513
REMARK INTER:                  -8.090
REMARK INTRA:                  -0.423
REMARK UNBOUND:                 0.277
REMARK SMILES CN1C(=O)CN=C(c2ccccc2)c2cc(Cl)ccc21
REMARK SMILES IDX 1 1 2 2 3 3 4 4 5 5 6 6 7 7 14 8 15 9 16 10 17 11 18 12
REMARK SMILES IDX 19 13 20 14 8 15 9 16 13 17 10 18 12 19 11 20
REMARK H PARENT
ROOT
ATOM      1  C   UNL     1     120.384 159.263 109.503  1.00  0.00     0.153 C 
ATOM      2  N   UNL     1     119.034 158.733 109.638  1.00  0.00    -0.313 N 
ATOM      3  C   UNL     1     118.662 157.717 108.749  1.00  0.00     0.248 C 
ATOM      4  O   UNL     1     119.451 157.234 107.931  1.00  0.00    -0.272 OA
ATOM      5  C   UNL     1     117.203 157.285 108.762  1.00  0.00     0.243 C 
ATOM      6  N   UNL     1     116.945 156.516 109.975  1.00  0.00    -0.274 NA
ATOM      7  C   UNL     1     116.938 157.147 111.100  1.00  0.00     0.075 C 
ATOM      8  C   UNL     1     117.108 158.624 111.233  1.00  0.00     0.026 A 
ATOM      9  C   UNL     1     116.214 159.292 112.092  1.00  0.00     0.033 A 
ATOM     10  C   UNL     1     116.380 160.645 112.359  1.00  0.00     0.041 A 
ATOM     11  Cl  UNL     1     115.295 161.450 113.423  1.00  0.00    -0.084 Cl
ATOM     12  C   UNL     1     117.427 161.347 111.778  1.00  0.00     0.023 A 
ATOM     13  C   UNL     1     118.301 160.693 110.903  1.00  0.00     0.028 A 
ATOM     14  C   UNL     1     118.145 159.329 110.589  1.00  0.00     0.053 A 
ENDROOT
BRANCH   7  15
ATOM     15  C   UNL     1     116.738 156.330 112.341  1.00  0.00     0.000 A 
ATOM     16  C   UNL     1     115.449 155.895 112.668  1.00  0.00     0.010 A 
ATOM     17  C   UNL     1     117.819 155.971 113.157  1.00  0.00     0.010 A 
ATOM     18  C   UNL     1     115.236 155.133 113.818  1.00  0.00     0.001 A 
ATOM     19  C   UNL     1     117.602 155.208 114.306  1.00  0.00     0.001 A 
ATOM     20  C   UNL     1     116.312 154.794 114.638  1.00  0.00     0.000 A 
ENDBRANCH   7  15
TORSDOF 1
ENDMDL
MODEL 6
REMARK VINA RESULT:    -8.032      2.334      4.959
REMARK INTER + INTRA:          -8.225
REMARK INTER:                  -7.983
REMARK INTRA:                  -0.242
REMARK UNBOUND:                 0.277
REMARK SMILES CN1C(=O)CN=C(c2ccccc2)c2cc(Cl)ccc21
REMARK SMILES IDX 1 1 2 2 3 3 4 4 5 5 6 6 7 7 14 8 15 9 16 10 17 11 18 12
REMARK SMILES IDX 19 13 20 14 8 15 9 16 13 17 10 18 12 19 11 20
REMARK H PARENT
ROOT
ATOM      1  C   UNL     1     117.831 154.618 106.695  1.00  0.00     0.153 C 
ATOM      2  N   UNL     1     117.270 155.624 107.587  1.00  0.00    -0.313 N 
ATOM      3  C   UNL     1     115.884 155.591 107.785  1.00  0.00     0.248 C 
ATOM      4  O   UNL     1     115.167 154.715 107.292  1.00  0.00    -0.272 OA
ATOM      5  C   UNL     1     115.269 156.742 108.568  1.00  0.00     0.243 C 
ATOM      6  N   UNL     1     115.619 156.601 109.977  1.00  0.00    -0.274 NA
ATOM      7  C   UNL     1     116.846 156.809 110.319  1.00  0.00     0.075 C 
ATOM      8  C   UNL     1     117.914 157.254 109.375  1.00  0.00     0.026 A 
ATOM      9  C   UNL     1     118.752 158.299 109.809  1.00  0.00     0.033 A 
ATOM     10  C   UNL     1     119.840 158.689 109.039  1.00  0.00     0.041 A 
ATOM     11  Cl  UNL     1     120.869 159.953 109.584  1.00  0.00    -0.084 Cl
ATOM     12  C   UNL     1     120.106 158.052 107.834  1.00  0.00     0.023 A 
ATOM     13  C   UNL     1     119.260 157.032 107.387  1.00  0.00     0.028 A 
ATOM     14  C   UNL     1     118.132 156.630 108.129  1.00  0.00     0.053 A 
ENDROOT
BRANCH   7  15
ATOM     15  C   UNL     1     117.201 156.595 111.759  1.00  0.00     0.000 A 
ATOM     16  C   UNL     1     117.185 157.688 112.633  1.00  0.00     0.010 A 
ATOM     17  C   UNL     1     117.516 155.321 112.248  1.00  0.00     0.010 A 
ATOM     18  C   UNL     1     117.512 157.515 113.979  1.00  0.00     0.001 A 
ATOM     19  C   UNL     1     117.842 155.151 113.595  1.00  0.00     0.001 A 
ATOM     20  C   UNL     1     117.844 156.247 114.458  1.00  0.00     0.000 A 
ENDBRANCH   7  15
TORSDOF 1
ENDMDL
MODEL 7
REMARK VINA RESULT:    -7.223      4.250      6.662
REMARK INTER + INTRA:          -7.368
REMARK INTER:                  -7.631
REMARK INTRA:                   0.263
REMARK UNBOUND:                 0.277
REMARK SMILES CN1C(=O)CN=C(c2ccccc2)c2cc(Cl)ccc21
REMARK SMILES IDX 1 1 2 2 3 3 4 4 5 5 6 6 7 7 14 8 15 9 16 10 17 11 18 12
REMARK SMILES IDX 19 13 20 14 8 15 9 16 13 17 10 18 12 19 11 20
REMARK H PARENT
ROOT
ATOM      1  C   UNL     1     115.774 160.757 117.616  1.00  0.00     0.153 C 
ATOM      2  N   UNL     1     115.320 160.463 116.263  1.00  0.00    -0.313 N 
ATOM      3  C   UNL     1     114.917 161.553 115.481  1.00  0.00     0.248 C 
ATOM      4  O   UNL     1     115.002 162.718 115.878  1.00  0.00    -0.272 OA
ATOM      5  C   UNL     1     114.274 161.240 114.137  1.00  0.00     0.243 C 
ATOM      6  N   UNL     1     115.303 160.773 113.214  1.00  0.00    -0.274 NA
ATOM      7  C   UNL     1     115.819 159.609 113.422  1.00  0.00     0.075 C 
ATOM      8  C   UNL     1     115.381 158.681 114.507  1.00  0.00     0.026 A 
ATOM      9  C   UNL     1     115.186 157.333 114.149  1.00  0.00     0.033 A 
ATOM     10  C   UNL     1     114.892 156.387 115.123  1.00  0.00     0.041 A 
ATOM     11  Cl  UNL     1     114.673 154.740 114.681  1.00  0.00    -0.084 Cl
ATOM     12  C   UNL     1     114.787 156.766 116.454  1.00  0.00     0.023 A 
ATOM     13  C   UNL     1     114.953 158.108 116.809  1.00  0.00     0.028 A 
ATOM     14  C   UNL     1     115.224 159.098 115.844  1.00  0.00     0.053 A 
ENDROOT
BRANCH   7  15
ATOM     15  C   UNL     1     116.921 159.175 112.504  1.00  0.00     0.000 A 
ATOM     16  C   UNL     1     117.451 160.097 111.594  1.00  0.00     0.010 A 
ATOM     17  C   UNL     1     117.448 157.879 112.563  1.00  0.00     0.010 A 
ATOM     18  C   UNL     1     118.478 159.718 110.729  1.00  0.00     0.001 A 
ATOM     19  C   UNL     1     118.475 157.503 111.695  1.00  0.00     0.001 A 
ATOM     20  C   UNL     1     118.986 158.420 110.777  1.00  0.00     0.000 A 
ENDBRANCH   7  15
TORSDOF 1
ENDMDL
MODEL 8
REMARK VINA RESULT:    -7.152      2.931      4.794
REMARK INTER + INTRA:          -7.293
REMARK INTER:                  -7.032
REMARK INTRA:                  -0.261
REMARK UNBOUND:                 0.277
REMARK SMILES CN1C(=O)CN=C(c2ccccc2)c2cc(Cl)ccc21
REMARK SMILES IDX 1 1 2 2 3 3 4 4 5 5 6 6 7 7 14 8 15 9 16 10 17 11 18 12
REMARK SMILES IDX 19 13 20 14 8 15 9 16 13 17 10 18 12 19 11 20
REMARK H PARENT
ROOT
ATOM      1  C   UNL     1     121.645 158.884 108.253  1.00  0.00     0.153 C 
ATOM      2  N   UNL     1     120.237 158.591 108.489  1.00  0.00    -0.313 N 
ATOM      3  C   UNL     1     119.672 157.557 107.732  1.00  0.00     0.248 C 
ATOM      4  O   UNL     1     120.337 156.871 106.950  1.00  0.00    -0.272 OA
ATOM      5  C   UNL     1     118.166 157.364 107.840  1.00  0.00     0.243 C 
ATOM      6  N   UNL     1     117.853 156.779 109.139  1.00  0.00    -0.274 NA
ATOM      7  C   UNL     1     117.997 157.519 110.186  1.00  0.00     0.075 C 
ATOM      8  C   UNL     1     118.397 158.957 110.146  1.00  0.00     0.026 A 
ATOM      9  C   UNL     1     117.659 159.846 110.952  1.00  0.00     0.033 A 
ATOM     10  C   UNL     1     118.043 161.176 111.059  1.00  0.00     0.041 A 
ATOM     11  Cl  UNL     1     117.147 162.250 112.058  1.00  0.00    -0.084 Cl
ATOM     12  C   UNL     1     119.156 161.638 110.370  1.00  0.00     0.023 A 
ATOM     13  C   UNL     1     119.876 160.765 109.547  1.00  0.00     0.028 A 
ATOM     14  C   UNL     1     119.498 159.417 109.394  1.00  0.00     0.053 A 
ENDROOT
BRANCH   7  15
ATOM     15  C   UNL     1     117.735 156.881 111.517  1.00  0.00     0.000 A 
ATOM     16  C   UNL     1     118.547 157.221 112.605  1.00  0.00     0.010 A 
ATOM     17  C   UNL     1     116.677 155.981 111.695  1.00  0.00     0.010 A 
ATOM     18  C   UNL     1     118.324 156.641 113.854  1.00  0.00     0.001 A 
ATOM     19  C   UNL     1     116.457 155.403 112.947  1.00  0.00     0.001 A 
ATOM     20  C   UNL     1     117.282 155.729 114.023  1.00  0.00     0.000 A 
ENDBRANCH   7  15
TORSDOF 1
ENDMDL
MODEL 9
REMARK VINA RESULT:    -6.695      4.620      7.208
REMARK INTER + INTRA:          -6.809
REMARK INTER:                  -6.849
REMARK INTRA:                   0.040
REMARK UNBOUND:                 0.277
REMARK SMILES CN1C(=O)CN=C(c2ccccc2)c2cc(Cl)ccc21
REMARK SMILES IDX 1 1 2 2 3 3 4 4 5 5 6 6 7 7 14 8 15 9 16 10 17 11 18 12
REMARK SMILES IDX 19 13 20 14 8 15 9 16 13 17 10 18 12 19 11 20
REMARK H PARENT
ROOT
ATOM      1  C   UNL     1     116.505 163.742 116.711  1.00  0.00     0.153 C 
ATOM      2  N   UNL     1     116.143 163.451 115.330  1.00  0.00    -0.313 N 
ATOM      3  C   UNL     1     116.718 164.260 114.342  1.00  0.00     0.248 C 
ATOM      4  O   UNL     1     117.547 165.136 114.605  1.00  0.00    -0.272 OA
ATOM      5  C   UNL     1     116.210 164.082 112.918  1.00  0.00     0.243 C 
ATOM      6  N   UNL     1     116.718 162.822 112.386  1.00  0.00    -0.274 NA
ATOM      7  C   UNL     1     116.239 161.725 112.868  1.00  0.00     0.075 C 
ATOM      8  C   UNL     1     115.149 161.664 113.887  1.00  0.00     0.026 A 
ATOM      9  C   UNL     1     114.110 160.743 113.651  1.00  0.00     0.033 A 
ATOM     10  C   UNL     1     113.122 160.543 114.608  1.00  0.00     0.041 A 
ATOM     11  Cl  UNL     1     111.867 159.404 114.321  1.00  0.00    -0.084 Cl
ATOM     12  C   UNL     1     113.153 161.254 115.800  1.00  0.00     0.023 A 
ATOM     13  C   UNL     1     114.168 162.189 116.026  1.00  0.00     0.028 A 
ATOM     14  C   UNL     1     115.169 162.437 115.066  1.00  0.00     0.053 A 
ENDROOT
BRANCH   7  15
ATOM     15  C   UNL     1     116.820 160.441 112.357  1.00  0.00     0.000 A 
ATOM     16  C   UNL     1     117.659 160.474 111.237  1.00  0.00     0.010 A 
ATOM     17  C   UNL     1     116.564 159.222 112.996  1.00  0.00     0.010 A 
ATOM     18  C   UNL     1     118.213 159.293 110.742  1.00  0.00     0.001 A 
ATOM     19  C   UNL     1     117.120 158.042 112.497  1.00  0.00     0.001 A 
ATOM     20  C   UNL     1     117.939 158.077 111.369  1.00  0.00     0.000 A 
ENDBRANCH   7  15
TORSDOF 1
ENDMDL
