MODEL 1
REMARK VINA RESULT:    -9.180      0.000      0.000
REMARK INTER + INTRA:         -11.962
REMARK INTER:                 -11.326
REMARK INTRA:                  -0.636
REMARK UNBOUND:                -0.636
REMARK SMILES CCN(C(C)=O)c1cccc(-c2ccnc3c(C#N)cnn23)c1
REMARK SMILES IDX 3 1 2 2 1 3 4 4 6 5 5 6 7 7 8 8 23 9 9 10 11 11 10 12 12 13
REMARK SMILES IDX 13 14 22 15 14 16 21 17 16 18 15 19 20 20 17 21 18 22 19 23
REMARK H PARENT
ROOT
ATOM      1  N   UNL     1     118.720 156.908 106.929  1.00  0.00    -0.313 N 
ENDROOT
BRANCH   1   2
ATOM      2  C   UNL     1     118.821 157.354 105.527  1.00  0.00     0.122 C 
ATOM      3  C   UNL     1     120.008 156.731 104.801  1.00  0.00     0.028 C 
ENDBRANCH   1   2
BRANCH   1   4
ATOM      4  C   UNL     1     118.159 155.653 107.240  1.00  0.00     0.223 C 
ATOM      5  O   UNL     1     118.538 154.904 108.143  1.00  0.00    -0.275 OA
ATOM      6  C   UNL     1     116.989 155.194 106.396  1.00  0.00     0.115 C 
ENDBRANCH   1   4
BRANCH   1   7
ATOM      7  C   UNL     1     119.140 157.832 107.970  1.00  0.00     0.044 A 
ATOM      8  C   UNL     1     120.339 158.553 107.880  1.00  0.00     0.026 A 
ATOM      9  C   UNL     1     118.345 158.074 109.108  1.00  0.00     0.036 A 
ATOM     10  C   UNL     1     120.745 159.440 108.884  1.00  0.00     0.003 A 
ATOM     11  C   UNL     1     118.733 158.966 110.127  1.00  0.00     0.002 A 
ATOM     12  C   UNL     1     119.950 159.642 110.006  1.00  0.00     0.010 A 
BRANCH  11  13
ATOM     13  C   UNL     1     117.865 159.185 111.306  1.00  0.00     0.076 C 
ATOM     14  C   UNL     1     117.161 160.331 111.393  1.00  0.00     0.049 C 
ATOM     15  N   UNL     1     117.733 158.225 112.331  1.00  0.00    -0.213 N 
ATOM     16  C   UNL     1     116.301 160.483 112.594  1.00  0.00     0.116 C 
ATOM     17  N   UNL     1     118.331 157.002 112.432  1.00  0.00    -0.173 NA
ATOM     18  C   UNL     1     116.891 158.466 113.432  1.00  0.00     0.173 A 
ATOM     19  N   UNL     1     116.165 159.621 113.554  1.00  0.00    -0.236 NA
ATOM     20  C   UNL     1     117.888 156.500 113.585  1.00  0.00     0.157 A 
ATOM     21  C   UNL     1     116.998 157.357 114.240  1.00  0.00     0.117 A 
ATOM     22  C   UNL     1     116.335 157.134 115.477  1.00  0.00     0.105 C 
ATOM     23  N   UNL     1     115.813 156.912 116.490  1.00  0.00    -0.192 NA
ENDBRANCH  11  13
ENDBRANCH   1   7
TORSDOF 4
ENDMDL
MODEL 2
REMARK VINA RESULT:    -8.846      1.945      6.830
REMARK INTER + INTRA:         -11.550
REMARK INTER:                 -10.898
REMARK INTRA:                  -0.652
REMARK UNBOUND:                -0.636
REMARK SMILES CCN(C(C)=O)c1cccc(-c2ccnc3c(C#N)cnn23)c1
REMARK SMILES IDX 3 1 2 2 1 3 4 4 6 5 5 6 7 7 8 8 23 9 9 10 11 11 10 12 12 13
REMARK SMILES IDX 13 14 22 15 14 16 21 17 16 18 15 19 20 20 17 21 18 22 19 23
REMARK H PARENT
ROOT
ATOM      1  N   UNL     1     116.760 156.588 113.407  1.00  0.00    -0.313 N 
ENDROOT
BRANCH   1   2
ATOM      2  C   UNL     1     117.891 155.802 113.935  1.00  0.00     0.122 C 
ATOM      3  C   UNL     1     117.819 154.334 113.532  1.00  0.00     0.028 C 
ENDBRANCH   1   2
BRANCH   1   4
ATOM      4  C   UNL     1     115.436 156.127 113.562  1.00  0.00     0.223 C 
ATOM      5  O   UNL     1     114.781 155.532 112.703  1.00  0.00    -0.275 OA
ATOM      6  C   UNL     1     114.772 156.378 114.898  1.00  0.00     0.115 C 
ENDBRANCH   1   4
BRANCH   1   7
ATOM      7  C   UNL     1     117.060 157.800 112.663  1.00  0.00     0.044 A 
ATOM      8  C   UNL     1     116.525 159.044 113.026  1.00  0.00     0.026 A 
ATOM      9  C   UNL     1     117.933 157.790 111.556  1.00  0.00     0.036 A 
ATOM     10  C   UNL     1     116.811 160.210 112.308  1.00  0.00     0.003 A 
ATOM     11  C   UNL     1     118.239 158.954 110.823  1.00  0.00     0.002 A 
ATOM     12  C   UNL     1     117.659 160.166 111.207  1.00  0.00     0.010 A 
BRANCH  11  13
ATOM     13  C   UNL     1     119.159 158.893 109.665  1.00  0.00     0.076 C 
ATOM     14  C   UNL     1     120.332 159.552 109.730  1.00  0.00     0.049 C 
ATOM     15  N   UNL     1     118.859 158.149 108.505  1.00  0.00    -0.213 N 
ATOM     16  C   UNL     1     121.214 159.441 108.541  1.00  0.00     0.116 C 
ATOM     17  N   UNL     1     117.750 157.399 108.239  1.00  0.00    -0.173 NA
ATOM     18  C   UNL     1     119.764 158.109 107.428  1.00  0.00     0.173 A 
ATOM     19  N   UNL     1     120.962 158.771 107.459  1.00  0.00    -0.236 NA
ATOM     20  C   UNL     1     117.949 156.919 107.011  1.00  0.00     0.157 A 
ATOM     21  C   UNL     1     119.172 157.321 106.466  1.00  0.00     0.117 A 
ATOM     22  C   UNL     1     119.703 156.988 105.191  1.00  0.00     0.105 C 
ATOM     23  N   UNL     1     120.100 156.689 104.142  1.00  0.00    -0.192 NA
ENDBRANCH  11  13
ENDBRANCH   1   7
TORSDOF 4
ENDMDL
MODEL 3
REMARK VINA RESULT:    -8.680      1.714      3.078
REMARK INTER + INTRA:         -11.345
REMARK INTER:                 -10.832
REMARK INTRA:                  -0.514
REMARK UNBOUND:                -0.636
REMARK SMILES CCN(C(C)=O)c1cccc(-c2ccnc3c(C#N)cnn23)c1
REMARK SMILES IDX 3 1 2 2 1 3 4 4 6 5 5 6 7 7 8 8 23 9 9 10 11 11 10 12 12 13
REMARK SMILES IDX 13 14 22 15 14 16 21 17 16 18 15 19 20 20 17 21 18 22 19 23
REMARK H PARENT
ROOT
ATOM      1  N   UNL     1     118.439 156.602 107.570  1.00  0.00    -0.313 N 
ENDROOT
BRANCH   1   2
ATOM      2  C   UNL     1     117.889 155.239 107.450  1.00  0.00     0.122 C 
ATOM      3  C   UNL     1     116.831 155.131 106.358  1.00  0.00     0.028 C 
ENDBRANCH   1   2
BRANCH   1   4
ATOM      4  C   UNL     1     118.866 157.303 106.424  1.00  0.00     0.223 C 
ATOM      5  O   UNL     1     118.273 158.249 105.901  1.00  0.00    -0.275 OA
ATOM      6  C   UNL     1     120.167 156.858 105.790  1.00  0.00     0.115 C 
ENDBRANCH   1   4
BRANCH   1   7
ATOM      7  C   UNL     1     118.597 157.159 108.904  1.00  0.00     0.044 A 
ATOM      8  C   UNL     1     119.353 158.316 109.139  1.00  0.00     0.026 A 
ATOM      9  C   UNL     1     117.968 156.580 110.025  1.00  0.00     0.036 A 
ATOM     10  C   UNL     1     119.508 158.849 110.423  1.00  0.00     0.003 A 
ATOM     11  C   UNL     1     118.106 157.105 111.325  1.00  0.00     0.002 A 
ATOM     12  C   UNL     1     118.893 158.244 111.513  1.00  0.00     0.010 A 
BRANCH  11  13
ATOM     13  C   UNL     1     117.428 156.460 112.472  1.00  0.00     0.076 C 
ATOM     14  C   UNL     1     117.669 155.158 112.723  1.00  0.00     0.049 C 
ATOM     15  N   UNL     1     116.558 157.169 113.326  1.00  0.00    -0.213 N 
ATOM     16  C   UNL     1     116.967 154.576 113.894  1.00  0.00     0.116 C 
ATOM     17  N   UNL     1     116.194 158.483 113.268  1.00  0.00    -0.173 NA
ATOM     18  C   UNL     1     115.939 156.522 114.411  1.00  0.00     0.173 A 
ATOM     19  N   UNL     1     116.157 155.200 114.692  1.00  0.00    -0.236 NA
ATOM     20  C   UNL     1     115.347 158.648 114.285  1.00  0.00     0.157 A 
ATOM     21  C   UNL     1     115.156 157.476 115.023  1.00  0.00     0.117 A 
ATOM     22  C   UNL     1     114.333 157.298 116.168  1.00  0.00     0.105 C 
ATOM     23  N   UNL     1     113.650 157.198 117.101  1.00  0.00    -0.192 NA
ENDBRANCH  11  13
ENDBRANCH   1   7
TORSDOF 4
ENDMDL
MODEL 4
REMARK VINA RESULT:    -8.522      1.495      2.554
REMARK INTER + INTRA:         -11.150
REMARK INTER:                 -10.712
REMARK INTRA:                  -0.438
REMARK UNBOUND:                -0.636
REMARK SMILES CCN(C(C)=O)c1cccc(-c2ccnc3c(C#N)cnn23)c1
REMARK SMILES IDX 3 1 2 2 1 3 4 4 6 5 5 6 7 7 8 8 23 9 9 10 11 11 10 12 12 13
REMARK SMILES IDX 13 14 22 15 14 16 21 17 16 18 15 19 20 20 17 21 18 22 19 23
REMARK H PARENT
ROOT
ATOM      1  N   UNL     1     119.940 157.443 106.821  1.00  0.00    -0.313 N 
ENDROOT
BRANCH   1   2
ATOM      2  C   UNL     1     121.158 158.150 107.260  1.00  0.00     0.122 C 
ATOM      3  C   UNL     1     121.081 159.653 107.016  1.00  0.00     0.028 C 
ENDBRANCH   1   2
BRANCH   1   4
ATOM      4  C   UNL     1     119.595 157.396 105.454  1.00  0.00     0.223 C 
ATOM      5  O   UNL     1     118.510 157.737 104.978  1.00  0.00    -0.275 OA
ATOM      6  C   UNL     1     120.652 156.892 104.495  1.00  0.00     0.115 C 
ENDBRANCH   1   4
BRANCH   1   7
ATOM      7  C   UNL     1     119.078 156.872 107.842  1.00  0.00     0.044 A 
ATOM      8  C   UNL     1     118.643 155.540 107.784  1.00  0.00     0.026 A 
ATOM      9  C   UNL     1     118.664 157.621 108.962  1.00  0.00     0.036 A 
ATOM     10  C   UNL     1     117.810 154.992 108.766  1.00  0.00     0.003 A 
ATOM     11  C   UNL     1     117.830 157.086 109.964  1.00  0.00     0.002 A 
ATOM     12  C   UNL     1     117.399 155.762 109.848  1.00  0.00     0.010 A 
BRANCH  11  13
ATOM     13  C   UNL     1     117.418 157.913 111.121  1.00  0.00     0.076 C 
ATOM     14  C   UNL     1     116.996 159.174 110.902  1.00  0.00     0.049 C 
ATOM     15  N   UNL     1     117.430 157.417 112.441  1.00  0.00    -0.213 N 
ATOM     16  C   UNL     1     116.586 159.945 112.103  1.00  0.00     0.116 C 
ATOM     17  N   UNL     1     117.796 156.178 112.881  1.00  0.00    -0.173 NA
ATOM     18  C   UNL     1     117.023 158.232 113.514  1.00  0.00     0.173 A 
ATOM     19  N   UNL     1     116.593 159.519 113.328  1.00  0.00    -0.236 NA
ATOM     20  C   UNL     1     117.641 156.226 114.204  1.00  0.00     0.157 A 
ATOM     21  C   UNL     1     117.165 157.464 114.647  1.00  0.00     0.117 A 
ATOM     22  C   UNL     1     116.881 157.854 115.984  1.00  0.00     0.105 C 
ATOM     23  N   UNL     1     116.660 158.131 117.090  1.00  0.00    -0.192 NA
ENDBRANCH  11  13
ENDBRANCH   1   7
TORSDOF 4
ENDMDL
MODEL 5
REMARK VINA RESULT:    -8.514      2.058      3.765
REMARK INTER + INTRA:         -11.140
REMARK INTER:                 -10.580
REMARK INTRA:                  -0.561
REMARK UNBOUND:                -0.636
REMARK SMILES CCN(C(C)=O)c1cccc(-c2ccnc3c(C#N)cnn23)c1
REMARK SMILES IDX 3 1 2 2 1 3 4 4 6 5 5 6 7 7 8 8 23 9 9 10 11 11 10 12 12 13
REMARK SMILES IDX 13 14 22 15 14 16 21 17 16 18 15 19 20 20 17 21 18 22 19 23
REMARK H PARENT
ROOT
ATOM      1  N   UNL     1     119.456 158.300 108.447  1.00  0.00    -0.313 N 
ENDROOT
BRANCH   1   2
ATOM      2  C   UNL     1     120.217 159.178 109.356  1.00  0.00     0.122 C 
ATOM      3  C   UNL     1     121.177 160.098 108.610  1.00  0.00     0.028 C 
ENDBRANCH   1   2
BRANCH   1   4
ATOM      4  C   UNL     1     119.787 158.231 107.078  1.00  0.00     0.223 C 
ATOM      5  O   UNL     1     119.392 159.008 106.206  1.00  0.00    -0.275 OA
ATOM      6  C   UNL     1     120.711 157.111 106.650  1.00  0.00     0.115 C 
ENDBRANCH   1   4
BRANCH   1   7
ATOM      7  C   UNL     1     118.317 157.580 108.991  1.00  0.00     0.044 A 
ATOM      8  C   UNL     1     117.177 157.306 108.221  1.00  0.00     0.026 A 
ATOM      9  C   UNL     1     118.315 157.090 110.312  1.00  0.00     0.036 A 
ATOM     10  C   UNL     1     116.079 156.615 108.745  1.00  0.00     0.003 A 
ATOM     11  C   UNL     1     117.222 156.387 110.858  1.00  0.00     0.002 A 
ATOM     12  C   UNL     1     116.098 156.163 110.060  1.00  0.00     0.010 A 
BRANCH  11  13
ATOM     13  C   UNL     1     117.265 155.895 112.253  1.00  0.00     0.076 C 
ATOM     14  C   UNL     1     117.659 154.627 112.485  1.00  0.00     0.049 C 
ATOM     15  N   UNL     1     116.930 156.715 113.350  1.00  0.00    -0.213 N 
ATOM     16  C   UNL     1     117.692 154.200 113.906  1.00  0.00     0.116 C 
ATOM     17  N   UNL     1     116.530 158.020 113.345  1.00  0.00    -0.173 NA
ATOM     18  C   UNL     1     116.991 156.213 114.663  1.00  0.00     0.173 A 
ATOM     19  N   UNL     1     117.383 154.929 114.934  1.00  0.00    -0.236 NA
ATOM     20  C   UNL     1     116.325 158.319 114.628  1.00  0.00     0.157 A 
ATOM     21  C   UNL     1     116.596 157.246 115.482  1.00  0.00     0.117 A 
ATOM     22  C   UNL     1     116.492 157.220 116.899  1.00  0.00     0.105 C 
ATOM     23  N   UNL     1     116.395 157.243 118.056  1.00  0.00    -0.192 NA
ENDBRANCH  11  13
ENDBRANCH   1   7
TORSDOF 4
ENDMDL
MODEL 6
REMARK VINA RESULT:    -8.436      2.090      3.356
REMARK INTER + INTRA:         -11.045
REMARK INTER:                 -10.997
REMARK INTRA:                  -0.048
REMARK UNBOUND:                -0.636
REMARK SMILES CCN(C(C)=O)c1cccc(-c2ccnc3c(C#N)cnn23)c1
REMARK SMILES IDX 3 1 2 2 1 3 4 4 6 5 5 6 7 7 8 8 23 9 9 10 11 11 10 12 12 13
REMARK SMILES IDX 13 14 22 15 14 16 21 17 16 18 15 19 20 20 17 21 18 22 19 23
REMARK H PARENT
ROOT
ATOM      1  N   UNL     1     119.812 158.378 108.606  1.00  0.00    -0.313 N 
ENDROOT
BRANCH   1   2
ATOM      2  C   UNL     1     120.442 159.434 109.421  1.00  0.00     0.122 C 
ATOM      3  C   UNL     1     121.279 160.395 108.584  1.00  0.00     0.028 C 
ENDBRANCH   1   2
BRANCH   1   4
ATOM      4  C   UNL     1     120.003 158.345 107.209  1.00  0.00     0.223 C 
ATOM      5  O   UNL     1     119.366 159.004 106.385  1.00  0.00    -0.275 OA
ATOM      6  C   UNL     1     121.085 157.426 106.685  1.00  0.00     0.115 C 
ENDBRANCH   1   4
BRANCH   1   7
ATOM      7  C   UNL     1     118.935 157.433 109.277  1.00  0.00     0.044 A 
ATOM      8  C   UNL     1     118.537 156.233 108.670  1.00  0.00     0.026 A 
ATOM      9  C   UNL     1     118.468 157.660 110.587  1.00  0.00     0.036 A 
ATOM     10  C   UNL     1     117.690 155.324 109.313  1.00  0.00     0.003 A 
ATOM     11  C   UNL     1     117.619 156.755 111.255  1.00  0.00     0.002 A 
ATOM     12  C   UNL     1     117.227 155.586 110.598  1.00  0.00     0.010 A 
BRANCH  11  13
ATOM     13  C   UNL     1     117.151 157.038 112.631  1.00  0.00     0.076 C 
ATOM     14  C   UNL     1     116.783 158.296 112.947  1.00  0.00     0.049 C 
ATOM     15  N   UNL     1     117.054 156.032 113.614  1.00  0.00    -0.213 N 
ATOM     16  C   UNL     1     116.313 158.510 114.339  1.00  0.00     0.116 C 
ATOM     17  N   UNL     1     117.351 154.704 113.504  1.00  0.00    -0.173 NA
ATOM     18  C   UNL     1     116.597 156.340 114.908  1.00  0.00     0.173 A 
ATOM     19  N   UNL     1     116.220 157.607 115.265  1.00  0.00    -0.236 NA
ATOM     20  C   UNL     1     117.104 154.198 114.712  1.00  0.00     0.157 A 
ATOM     21  C   UNL     1     116.635 155.158 115.614  1.00  0.00     0.117 A 
ATOM     22  C   UNL     1     116.269 154.963 116.973  1.00  0.00     0.105 C 
ATOM     23  N   UNL     1     115.978 154.760 118.079  1.00  0.00    -0.192 NA
ENDBRANCH  11  13
ENDBRANCH   1   7
TORSDOF 4
ENDMDL
MODEL 7
REMARK VINA RESULT:    -8.291      1.729      3.524
REMARK INTER + INTRA:         -10.866
REMARK INTER:                 -10.281
REMARK INTRA:                  -0.586
REMARK UNBOUND:                -0.636
REMARK SMILES CCN(C(C)=O)c1cccc(-c2ccnc3c(C#N)cnn23)c1
REMARK SMILES IDX 3 1 2 2 1 3 4 4 6 5 5 6 7 7 8 8 23 9 9 10 11 11 10 12 12 13
REMARK SMILES IDX 13 14 22 15 14 16 21 17 16 18 15 19 20 20 17 21 18 22 19 23
REMARK H PARENT
ROOT
ATOM      1  N   UNL     1     119.910 157.558 107.136  1.00  0.00    -0.313 N 
ENDROOT
BRANCH   1   2
ATOM      2  C   UNL     1     121.035 158.335 107.690  1.00  0.00     0.122 C 
ATOM      3  C   UNL     1     120.909 159.828 107.406  1.00  0.00     0.028 C 
ENDBRANCH   1   2
BRANCH   1   4
ATOM      4  C   UNL     1     119.619 157.608 105.757  1.00  0.00     0.223 C 
ATOM      5  O   UNL     1     118.580 158.050 105.261  1.00  0.00    -0.275 OA
ATOM      6  C   UNL     1     120.676 157.081 104.811  1.00  0.00     0.115 C 
ENDBRANCH   1   4
BRANCH   1   7
ATOM      7  C   UNL     1     119.076 156.812 108.063  1.00  0.00     0.044 A 
ATOM      8  C   UNL     1     118.592 155.532 107.757  1.00  0.00     0.026 A 
ATOM      9  C   UNL     1     118.739 157.326 109.331  1.00  0.00     0.036 A 
ATOM     10  C   UNL     1     117.785 154.815 108.648  1.00  0.00     0.003 A 
ATOM     11  C   UNL     1     117.933 156.617 110.245  1.00  0.00     0.002 A 
ATOM     12  C   UNL     1     117.451 155.356 109.884  1.00  0.00     0.010 A 
BRANCH  11  13
ATOM     13  C   UNL     1     117.603 157.200 111.565  1.00  0.00     0.076 C 
ATOM     14  C   UNL     1     117.834 156.471 112.675  1.00  0.00     0.049 C 
ATOM     15  N   UNL     1     117.076 158.501 111.702  1.00  0.00    -0.213 N 
ATOM     16  C   UNL     1     117.492 157.117 113.967  1.00  0.00     0.116 C 
ATOM     17  N   UNL     1     116.788 159.409 110.724  1.00  0.00    -0.173 NA
ATOM     18  C   UNL     1     116.783 159.022 112.976  1.00  0.00     0.173 A 
ATOM     19  N   UNL     1     117.001 158.307 114.123  1.00  0.00    -0.236 NA
ATOM     20  C   UNL     1     116.303 160.467 111.374  1.00  0.00     0.157 A 
ATOM     21  C   UNL     1     116.280 160.286 112.760  1.00  0.00     0.117 A 
ATOM     22  C   UNL     1     115.838 161.208 113.747  1.00  0.00     0.105 C 
ATOM     23  N   UNL     1     115.468 161.992 114.519  1.00  0.00    -0.192 NA
ENDBRANCH  11  13
ENDBRANCH   1   7
TORSDOF 4
ENDMDL
MODEL 8
REMARK VINA RESULT:    -8.273      2.601      7.309
REMARK INTER + INTRA:         -10.843
REMARK INTER:                 -10.252
REMARK INTRA:                  -0.591
REMARK UNBOUND:                -0.636
REMARK SMILES CCN(C(C)=O)c1cccc(-c2ccnc3c(C#N)cnn23)c1
REMARK SMILES IDX 3 1 2 2 1 3 4 4 6 5 5 6 7 7 8 8 23 9 9 10 11 11 10 12 12 13
REMARK SMILES IDX 13 14 22 15 14 16 21 17 16 18 15 19 20 20 17 21 18 22 19 23
REMARK H PARENT
ROOT
ATOM      1  N   UNL     1     115.629 159.764 113.727  1.00  0.00    -0.313 N 
ENDROOT
BRANCH   1   2
ATOM      2  C   UNL     1     115.250 160.934 112.912  1.00  0.00     0.122 C 
ATOM      3  C   UNL     1     116.185 162.119 113.123  1.00  0.00     0.028 C 
ENDBRANCH   1   2
BRANCH   1   4
ATOM      4  C   UNL     1     115.212 159.665 115.071  1.00  0.00     0.223 C 
ATOM      5  O   UNL     1     115.927 159.849 116.058  1.00  0.00    -0.275 OA
ATOM      6  C   UNL     1     113.761 159.310 115.316  1.00  0.00     0.115 C 
ENDBRANCH   1   4
BRANCH   1   7
ATOM      7  C   UNL     1     116.503 158.770 113.127  1.00  0.00     0.044 A 
ATOM      8  C   UNL     1     116.651 157.487 113.674  1.00  0.00     0.026 A 
ATOM      9  C   UNL     1     117.222 159.036 111.944  1.00  0.00     0.036 A 
ATOM     10  C   UNL     1     117.495 156.531 113.098  1.00  0.00     0.003 A 
ATOM     11  C   UNL     1     118.072 158.085 111.345  1.00  0.00     0.002 A 
ATOM     12  C   UNL     1     118.208 156.829 111.943  1.00  0.00     0.010 A 
BRANCH  11  13
ATOM     13  C   UNL     1     118.809 158.412 110.104  1.00  0.00     0.076 C 
ATOM     14  C   UNL     1     119.844 159.273 110.168  1.00  0.00     0.049 C 
ATOM     15  N   UNL     1     118.480 157.834 108.860  1.00  0.00    -0.213 N 
ATOM     16  C   UNL     1     120.548 159.548 108.891  1.00  0.00     0.116 C 
ATOM     17  N   UNL     1     117.495 156.933 108.576  1.00  0.00    -0.173 NA
ATOM     18  C   UNL     1     119.210 158.164 107.704  1.00  0.00     0.173 A 
ATOM     19  N   UNL     1     120.264 159.038 107.733  1.00  0.00    -0.236 NA
ATOM     20  C   UNL     1     117.595 156.722 107.263  1.00  0.00     0.157 A 
ATOM     21  C   UNL     1     118.634 157.451 106.677  1.00  0.00     0.117 A 
ATOM     22  C   UNL     1     119.024 157.456 105.310  1.00  0.00     0.105 C 
ATOM     23  N   UNL     1     119.310 157.430 104.185  1.00  0.00    -0.192 NA
ENDBRANCH  11  13
ENDBRANCH   1   7
TORSDOF 4
ENDMDL
MODEL 9
REMARK VINA RESULT:    -8.025      2.572      7.423
REMARK INTER + INTRA:         -10.537
REMARK INTER:                  -9.886
REMARK INTRA:                  -0.652
REMARK UNBOUND:                -0.636
REMARK SMILES CCN(C(C)=O)c1cccc(-c2ccnc3c(C#N)cnn23)c1
REMARK SMILES IDX 3 1 2 2 1 3 4 4 6 5 5 6 7 7 8 8 23 9 9 10 11 11 10 12 12 13
REMARK SMILES IDX 13 14 22 15 14 16 21 17 16 18 15 19 20 20 17 21 18 22 19 23
REMARK H PARENT
ROOT
ATOM      1  N   UNL     1     116.281 158.578 113.478  1.00  0.00    -0.313 N 
ENDROOT
BRANCH   1   2
ATOM      2  C   UNL     1     116.391 159.864 112.764  1.00  0.00     0.122 C 
ATOM      3  C   UNL     1     115.341 160.874 113.216  1.00  0.00     0.028 C 
ENDBRANCH   1   2
BRANCH   1   4
ATOM      4  C   UNL     1     115.787 158.534 114.798  1.00  0.00     0.223 C 
ATOM      5  O   UNL     1     116.378 158.950 115.797  1.00  0.00    -0.275 OA
ATOM      6  C   UNL     1     114.413 157.932 114.998  1.00  0.00     0.115 C 
ENDBRANCH   1   4
BRANCH   1   7
ATOM      7  C   UNL     1     116.769 157.384 112.809  1.00  0.00     0.044 A 
ATOM      8  C   UNL     1     117.248 156.277 113.525  1.00  0.00     0.026 A 
ATOM      9  C   UNL     1     116.754 157.265 111.404  1.00  0.00     0.036 A 
ATOM     10  C   UNL     1     117.721 155.128 112.881  1.00  0.00     0.003 A 
ATOM     11  C   UNL     1     117.219 156.115 110.737  1.00  0.00     0.002 A 
ATOM     12  C   UNL     1     117.713 155.049 111.493  1.00  0.00     0.010 A 
BRANCH  11  13
ATOM     13  C   UNL     1     117.186 156.038 109.259  1.00  0.00     0.076 C 
ATOM     14  C   UNL     1     116.205 155.330 108.665  1.00  0.00     0.049 C 
ATOM     15  N   UNL     1     118.134 156.700 108.450  1.00  0.00    -0.213 N 
ATOM     16  C   UNL     1     116.223 155.303 107.181  1.00  0.00     0.116 C 
ATOM     17  N   UNL     1     119.186 157.479 108.838  1.00  0.00    -0.173 NA
ATOM     18  C   UNL     1     118.064 156.609 107.048  1.00  0.00     0.173 A 
ATOM     19  N   UNL     1     117.084 155.895 106.413  1.00  0.00    -0.236 NA
ATOM     20  C   UNL     1     119.773 157.849 107.700  1.00  0.00     0.157 A 
ATOM     21  C   UNL     1     119.124 157.345 106.568  1.00  0.00     0.117 A 
ATOM     22  C   UNL     1     119.475 157.549 105.206  1.00  0.00     0.105 C 
ATOM     23  N   UNL     1     119.795 157.743 104.107  1.00  0.00    -0.192 NA
ENDBRANCH  11  13
ENDBRANCH   1   7
TORSDOF 4
ENDMDL
