REMARK SMILES Cc1nnc2n1-c1ccc(Cl)cc1C(c1ccccc1)=NC2
REMARK SMILES IDX 1 1 2 2 3 3 4 4 5 5 6 6 7 7 8 8 9 9 10 10 11 11 12 12 13 13
REMARK SMILES IDX 14 14 21 15 22 16 15 17 16 18 20 19 17 20 19 21 18 22
REMARK H PARENT
ROOT
ATOM      1  C   UNL     1      -4.137   0.550   0.453  1.00  0.00     0.090 C 
ATOM      2  C   UNL     1      -3.361  -0.712   0.436  1.00  0.00     0.134 A 
ATOM      3  N   UNL     1      -3.750  -1.828   1.019  1.00  0.00    -0.135 NA
ATOM      4  N   UNL     1      -2.734  -2.737   0.931  1.00  0.00    -0.133 NA
ATOM      5  C   UNL     1      -1.736  -2.167   0.291  1.00  0.00     0.159 A 
ATOM      6  N   UNL     1      -2.089  -0.890  -0.087  1.00  0.00    -0.281 N 
ATOM      7  C   UNL     1      -1.312  -0.034  -0.910  1.00  0.00     0.058 A 
ATOM      8  C   UNL     1      -1.959   0.798  -1.839  1.00  0.00     0.029 A 
ATOM      9  C   UNL     1      -1.216   1.581  -2.727  1.00  0.00     0.023 A 
ATOM     10  C   UNL     1       0.173   1.528  -2.704  1.00  0.00     0.041 A 
ATOM     11  Cl  UNL     1       1.083   2.478  -3.811  1.00  0.00    -0.084 Cl
ATOM     12  C   UNL     1       0.831   0.712  -1.788  1.00  0.00     0.033 A 
ATOM     13  C   UNL     1       0.097  -0.061  -0.869  1.00  0.00     0.026 A 
ATOM     14  C   UNL     1       0.881  -0.818   0.161  1.00  0.00     0.075 C 
ATOM     15  N   UNL     1       0.661  -2.042   0.503  1.00  0.00    -0.276 NA
ATOM     16  C   UNL     1      -0.444  -2.784  -0.086  1.00  0.00     0.220 C 
ENDROOT
BRANCH  14  17
ATOM     17  C   UNL     1       2.009  -0.115   0.857  1.00  0.00     0.000 A 
ATOM     18  C   UNL     1       3.163  -0.839   1.181  1.00  0.00     0.010 A 
ATOM     19  C   UNL     1       1.913   1.236   1.214  1.00  0.00     0.010 A 
ATOM     20  C   UNL     1       4.225  -0.208   1.830  1.00  0.00     0.001 A 
ATOM     21  C   UNL     1       2.980   1.862   1.863  1.00  0.00     0.001 A 
ATOM     22  C   UNL     1       4.135   1.142   2.166  1.00  0.00     0.000 A 
ENDBRANCH  14  17
TORSDOF 1
