REMARK SMILES O=C1CN=C(c2ccccc2Cl)c2cc([N+](=O)[O-])ccc2N1
REMARK SMILES IDX 1 1 2 2 3 3 4 4 5 5 13 6 14 7 15 8 19 9 20 10 21 11 22 12
REMARK SMILES IDX 6 14 7 15 11 16 8 17 10 18 9 19 12 20 16 21 17 22 18 23
REMARK H PARENT 22 13
ROOT
ATOM      1  O   UNL     1      -1.335   4.123  -1.697  1.00  0.00    -0.273 OA
ATOM      2  C   UNL     1      -1.175   3.146  -0.965  1.00  0.00     0.246 C 
ATOM      3  C   UNL     1      -0.244   3.157   0.230  1.00  0.00     0.243 C 
ATOM      4  N   UNL     1       0.837   2.201   0.043  1.00  0.00    -0.274 NA
ATOM      5  C   UNL     1       0.581   0.940   0.067  1.00  0.00     0.076 C 
ATOM      6  C   UNL     1      -0.769   0.310   0.200  1.00  0.00     0.031 A 
ATOM      7  C   UNL     1      -0.867  -0.903   0.908  1.00  0.00     0.098 A 
ATOM      8  C   UNL     1      -2.068  -1.622   0.910  1.00  0.00     0.270 A 
ATOM      9  C   UNL     1      -3.176  -1.153   0.200  1.00  0.00     0.088 A 
ATOM     10  C   UNL     1      -3.083   0.057  -0.491  1.00  0.00     0.034 A 
ATOM     11  C   UNL     1      -1.900   0.814  -0.470  1.00  0.00     0.051 A 
ATOM     12  N   UNL     1      -1.950   2.034  -1.160  1.00  0.00    -0.324 N 
ATOM     13  H   UNL     1      -2.682   2.187  -1.843  1.00  0.00     0.170 HD
ENDROOT
BRANCH   5  14
ATOM     14  C   UNL     1       1.747   0.036  -0.114  1.00  0.00     0.019 A 
ATOM     15  C   UNL     1       1.895  -0.600  -1.354  1.00  0.00     0.012 A 
ATOM     16  C   UNL     1       2.686  -0.167   0.903  1.00  0.00     0.050 A 
ATOM     17  C   UNL     1       2.980  -1.448  -1.571  1.00  0.00     0.001 A 
ATOM     18  C   UNL     1       3.769  -1.019   0.677  1.00  0.00     0.021 A 
ATOM     19  C   UNL     1       3.915  -1.659  -0.557  1.00  0.00     0.002 A 
ATOM     20  Cl  UNL     1       2.528   0.555   2.463  1.00  0.00    -0.084 Cl
ENDBRANCH   5  14
BRANCH   8  21
ATOM     21  N   UNL     1      -2.158  -2.892   1.644  1.00  0.00     0.062 N 
ATOM     22  O   UNL     1      -3.258  -3.461   1.674  1.00  0.00    -0.258 OA
ATOM     23  O   UNL     1      -1.128  -3.318   2.182  1.00  0.00    -0.258 OA
ENDBRANCH   8  21
TORSDOF 2
