REMARK SMILES CN1C(=O)CN=C(c2ccccc2)c2cc(Cl)ccc21
REMARK SMILES IDX 1 1 2 2 3 3 4 4 5 5 6 6 7 7 14 8 15 9 16 10 17 11 18 12
REMARK SMILES IDX 19 13 20 14 8 15 9 16 13 17 10 18 12 19 11 20
REMARK H PARENT
ROOT
ATOM      1  C   UNL     1      -3.468  -0.253  -1.435  1.00  0.00     0.153 C 
ATOM      2  N   UNL     1      -2.434  -0.565  -0.457  1.00  0.00    -0.313 N 
ATOM      3  C   UNL     1      -2.258  -1.916  -0.133  1.00  0.00     0.248 C 
ATOM      4  O   UNL     1      -2.891  -2.817  -0.691  1.00  0.00    -0.272 OA
ATOM      5  C   UNL     1      -1.310  -2.235   1.014  1.00  0.00     0.243 C 
ATOM      6  N   UNL     1       0.063  -2.013   0.573  1.00  0.00    -0.274 NA
ATOM      7  C   UNL     1       0.446  -0.796   0.379  1.00  0.00     0.075 C 
ATOM      8  C   UNL     1      -0.405   0.402   0.644  1.00  0.00     0.026 A 
ATOM      9  C   UNL     1       0.198   1.469   1.338  1.00  0.00     0.033 A 
ATOM     10  C   UNL     1      -0.490   2.662   1.520  1.00  0.00     0.041 A 
ATOM     11  Cl  UNL     1       0.259   3.966   2.353  1.00  0.00    -0.084 Cl
ATOM     12  C   UNL     1      -1.777   2.808   1.021  1.00  0.00     0.023 A 
ATOM     13  C   UNL     1      -2.389   1.741   0.355  1.00  0.00     0.028 A 
ATOM     14  C   UNL     1      -1.731   0.508   0.177  1.00  0.00     0.053 A 
ENDROOT
BRANCH   7  15
ATOM     15  C   UNL     1       1.838  -0.591  -0.138  1.00  0.00     0.000 A 
ATOM     16  C   UNL     1       2.852  -1.462   0.277  1.00  0.00     0.010 A 
ATOM     17  C   UNL     1       2.132   0.432  -1.048  1.00  0.00     0.010 A 
ATOM     18  C   UNL     1       4.156  -1.293  -0.190  1.00  0.00     0.001 A 
ATOM     19  C   UNL     1       3.438   0.598  -1.513  1.00  0.00     0.001 A 
ATOM     20  C   UNL     1       4.449  -0.260  -1.081  1.00  0.00     0.000 A 
ENDBRANCH   7  15
TORSDOF 1
