REMARK SMILES O=C1Nc2ccc(Cl)cc2C(c2ccccc2Cl)=NC1O
REMARK SMILES IDX 1 1 2 2 3 3 4 4 5 5 6 6 7 7 8 8 9 9 10 10 11 11 19 12 20 13
REMARK SMILES IDX 21 15 12 17 13 18 17 19 14 20 16 21 15 22 18 23
REMARK H PARENT 3 14 21 16
ROOT
ATOM      1  O   UNL     1      -2.876  -2.385  -2.269  1.00  0.00    -0.269 OA
ATOM      2  C   UNL     1      -2.274  -1.820  -1.352  1.00  0.00     0.276 C 
ATOM      3  N   UNL     1      -2.622  -0.534  -1.024  1.00  0.00    -0.321 N 
ATOM      4  C   UNL     1      -2.060   0.276  -0.027  1.00  0.00     0.050 A 
ATOM      5  C   UNL     1      -2.890   1.291   0.475  1.00  0.00     0.028 A 
ATOM      6  C   UNL     1      -2.458   2.121   1.511  1.00  0.00     0.023 A 
ATOM      7  C   UNL     1      -1.186   1.951   2.043  1.00  0.00     0.041 A 
ATOM      8  Cl  UNL     1      -0.653   2.967   3.324  1.00  0.00    -0.084 Cl
ATOM      9  C   UNL     1      -0.331   0.980   1.528  1.00  0.00     0.033 A 
ATOM     10  C   UNL     1      -0.753   0.150   0.475  1.00  0.00     0.026 A 
ATOM     11  C   UNL     1       0.264  -0.728  -0.179  1.00  0.00     0.079 C 
ATOM     12  N   UNL     1       0.070  -1.910  -0.649  1.00  0.00    -0.243 NA
ATOM     13  C   UNL     1      -1.228  -2.545  -0.475  1.00  0.00     0.323 C 
ATOM     14  H   UNL     1      -3.447  -0.213  -1.514  1.00  0.00     0.170 HD
ENDROOT
BRANCH  13  15
ATOM     15  O   UNL     1      -1.666  -2.694   0.869  1.00  0.00    -0.364 OA
ATOM     16  H   UNL     1      -2.406  -3.322   0.835  1.00  0.00     0.213 HD
ENDBRANCH  13  15
BRANCH  11  17
ATOM     17  C   UNL     1       1.626  -0.164  -0.374  1.00  0.00     0.019 A 
ATOM     18  C   UNL     1       1.781   0.858  -1.321  1.00  0.00     0.012 A 
ATOM     19  C   UNL     1       2.732  -0.641   0.338  1.00  0.00     0.050 A 
ATOM     20  C   UNL     1       3.042   1.407  -1.548  1.00  0.00     0.001 A 
ATOM     21  C   UNL     1       3.992  -0.084   0.104  1.00  0.00     0.021 A 
ATOM     22  C   UNL     1       4.146   0.937  -0.837  1.00  0.00     0.002 A 
ATOM     23  Cl  UNL     1       2.599  -1.863   1.550  1.00  0.00    -0.084 Cl
ENDBRANCH  11  17
TORSDOF 2
