REMARK SMILES Cc1ncc2n1-c1ccc(Cl)cc1C(c1ccccc1F)=NC2
REMARK SMILES IDX 1 1 2 2 3 3 4 4 5 5 6 6 7 7 8 8 9 9 10 10 11 11 12 12 13 13
REMARK SMILES IDX 14 14 22 15 23 16 15 17 16 18 20 19 17 20 19 21 18 22 21 23
REMARK H PARENT
ROOT
ATOM      1  C   UNL     1      -3.793   0.431  -1.465  1.00  0.00     0.088 C 
ATOM      2  C   UNL     1      -3.175  -0.735  -0.780  1.00  0.00     0.110 A 
ATOM      3  N   UNL     1      -3.572  -1.979  -0.975  1.00  0.00    -0.241 NA
ATOM      4  C   UNL     1      -2.675  -2.766  -0.317  1.00  0.00     0.137 A 
ATOM      5  C   UNL     1      -1.727  -2.000   0.317  1.00  0.00     0.064 A 
ATOM      6  N   UNL     1      -2.056  -0.688   0.048  1.00  0.00    -0.298 N 
ATOM      7  C   UNL     1      -1.376   0.442   0.582  1.00  0.00     0.057 A 
ATOM      8  C   UNL     1      -2.113   1.586   0.928  1.00  0.00     0.029 A 
ATOM      9  C   UNL     1      -1.481   2.690   1.504  1.00  0.00     0.023 A 
ATOM     10  C   UNL     1      -0.113   2.655   1.749  1.00  0.00     0.041 A 
ATOM     11  Cl  UNL     1       0.661   4.012   2.468  1.00  0.00    -0.084 Cl
ATOM     12  C   UNL     1       0.634   1.528   1.417  1.00  0.00     0.033 A 
ATOM     13  C   UNL     1       0.013   0.414   0.824  1.00  0.00     0.026 A 
ATOM     14  C   UNL     1       0.901  -0.718   0.402  1.00  0.00     0.077 C 
ATOM     15  N   UNL     1       0.645  -1.973   0.545  1.00  0.00    -0.278 NA
ATOM     16  C   UNL     1      -0.594  -2.382   1.181  1.00  0.00     0.198 C 
ENDROOT
BRANCH  14  17
ATOM     17  C   UNL     1       2.178  -0.371  -0.272  1.00  0.00     0.036 A 
ATOM     18  C   UNL     1       2.156   0.336  -1.480  1.00  0.00     0.013 A 
ATOM     19  C   UNL     1       3.393  -0.760   0.290  1.00  0.00     0.132 A 
ATOM     20  C   UNL     1       3.359   0.654  -2.113  1.00  0.00     0.001 A 
ATOM     21  C   UNL     1       4.592  -0.441  -0.341  1.00  0.00     0.040 A 
ATOM     22  C   UNL     1       4.575   0.267  -1.544  1.00  0.00     0.003 A 
ATOM     23  F   UNL     1       3.435  -1.403   1.466  1.00  0.00    -0.206 F 
ENDBRANCH  14  17
TORSDOF 1
