REMARK SMILES CN1C(=O)C(O)N=C(c2ccccc2)c2cc(Cl)ccc21
REMARK SMILES IDX 1 1 2 2 3 3 4 4 5 5 7 6 8 7 15 8 16 9 17 10 18 11 19 12
REMARK SMILES IDX 20 13 21 14 6 15 9 17 10 18 14 19 11 20 13 21 12 22
REMARK H PARENT 6 16
ROOT
ATOM      1  C   UNL     1      -3.395   0.059   1.696  1.00  0.00     0.153 C 
ATOM      2  N   UNL     1      -2.383  -0.361   0.734  1.00  0.00    -0.311 N 
ATOM      3  C   UNL     1      -2.202  -1.740   0.563  1.00  0.00     0.278 C 
ATOM      4  O   UNL     1      -2.767  -2.575   1.278  1.00  0.00    -0.269 OA
ATOM      5  C   UNL     1      -1.293  -2.189  -0.617  1.00  0.00     0.323 C 
ATOM      6  N   UNL     1       0.079  -1.935  -0.207  1.00  0.00    -0.243 NA
ATOM      7  C   UNL     1       0.472  -0.708  -0.138  1.00  0.00     0.078 C 
ATOM      8  C   UNL     1      -0.375   0.468  -0.505  1.00  0.00     0.026 A 
ATOM      9  C   UNL     1       0.223   1.452  -1.314  1.00  0.00     0.033 A 
ATOM     10  C   UNL     1      -0.460   2.627  -1.606  1.00  0.00     0.041 A 
ATOM     11  Cl  UNL     1       0.282   3.832  -2.581  1.00  0.00    -0.084 Cl
ATOM     12  C   UNL     1      -1.737   2.834  -1.101  1.00  0.00     0.023 A 
ATOM     13  C   UNL     1      -2.344   1.848  -0.318  1.00  0.00     0.028 A 
ATOM     14  C   UNL     1      -1.692   0.634  -0.026  1.00  0.00     0.053 A 
ENDROOT
BRANCH   5  15
ATOM     15  O   UNL     1      -1.517  -3.557  -0.920  1.00  0.00    -0.364 OA
ATOM     16  H   UNL     1      -1.328  -4.010  -0.078  1.00  0.00     0.213 HD
ENDBRANCH   5  15
BRANCH   7  17
ATOM     17  C   UNL     1       1.871  -0.465   0.339  1.00  0.00     0.000 A 
ATOM     18  C   UNL     1       2.874  -1.379  -0.007  1.00  0.00     0.010 A 
ATOM     19  C   UNL     1       2.184   0.638   1.144  1.00  0.00     0.010 A 
ATOM     20  C   UNL     1       4.185  -1.176   0.425  1.00  0.00     0.001 A 
ATOM     21  C   UNL     1       3.498   0.837   1.573  1.00  0.00     0.001 A 
ATOM     22  C   UNL     1       4.497  -0.067   1.211  1.00  0.00     0.000 A 
ENDBRANCH   7  17
TORSDOF 2
