REMARK SMILES Cc1nnc2n1-c1ccc(Cl)cc1C(c1ccccc1Cl)=NC2
REMARK SMILES IDX 1 1 2 2 3 3 4 4 5 5 6 6 7 7 8 8 9 9 10 10 11 11 12 12 13 13
REMARK SMILES IDX 14 14 22 15 23 16 15 17 16 18 20 19 17 20 19 21 18 22 21 23
REMARK H PARENT
ROOT
ATOM      1  C   UNL     1      -3.897  -0.045   1.569  1.00  0.00     0.090 C 
ATOM      2  C   UNL     1      -3.242  -1.026   0.672  1.00  0.00     0.134 A 
ATOM      3  N   UNL     1      -3.586  -2.296   0.593  1.00  0.00    -0.135 NA
ATOM      4  N   UNL     1      -2.684  -2.936  -0.207  1.00  0.00    -0.133 NA
ATOM      5  C   UNL     1      -1.801  -2.050  -0.613  1.00  0.00     0.159 A 
ATOM      6  N   UNL     1      -2.125  -0.804  -0.122  1.00  0.00    -0.281 N 
ATOM      7  C   UNL     1      -1.467   0.411  -0.448  1.00  0.00     0.058 A 
ATOM      8  C   UNL     1      -2.225   1.591  -0.551  1.00  0.00     0.029 A 
ATOM      9  C   UNL     1      -1.622   2.795  -0.919  1.00  0.00     0.023 A 
ATOM     10  C   UNL     1      -0.262   2.830  -1.197  1.00  0.00     0.041 A 
ATOM     11  Cl  UNL     1       0.478   4.312  -1.660  1.00  0.00    -0.084 Cl
ATOM     12  C   UNL     1       0.506   1.672  -1.104  1.00  0.00     0.033 A 
ATOM     13  C   UNL     1      -0.083   0.452  -0.724  1.00  0.00     0.026 A 
ATOM     14  C   UNL     1       0.833  -0.720  -0.542  1.00  0.00     0.076 C 
ATOM     15  N   UNL     1       0.588  -1.938  -0.879  1.00  0.00    -0.276 NA
ATOM     16  C   UNL     1      -0.668  -2.276  -1.534  1.00  0.00     0.220 C 
ENDROOT
BRANCH  14  17
ATOM     17  C   UNL     1       2.135  -0.475   0.132  1.00  0.00     0.019 A 
ATOM     18  C   UNL     1       2.119  -0.198   1.505  1.00  0.00     0.012 A 
ATOM     19  C   UNL     1       3.348  -0.542  -0.563  1.00  0.00     0.050 A 
ATOM     20  C   UNL     1       3.319   0.023   2.181  1.00  0.00     0.001 A 
ATOM     21  C   UNL     1       4.545  -0.318   0.123  1.00  0.00     0.021 A 
ATOM     22  C   UNL     1       4.530  -0.036   1.491  1.00  0.00     0.002 A 
ATOM     23  Cl  UNL     1       3.427  -0.830  -2.263  1.00  0.00    -0.084 Cl
ENDBRANCH  14  17
TORSDOF 1
