REMARK SMILES CCN(C(C)=O)c1cccc(-c2ccnc3c(C#N)cnn23)c1
REMARK SMILES IDX 3 1 2 2 1 3 4 4 6 5 5 6 7 7 8 8 23 9 9 10 11 11 10 12 12 13
REMARK SMILES IDX 13 14 22 15 14 16 21 17 16 18 15 19 20 20 17 21 18 22 19 23
REMARK H PARENT
ROOT
ATOM      1  N   UNL     1      -2.653  -0.119   0.322  1.00  0.00    -0.313 N 
ENDROOT
BRANCH   1   2
ATOM      2  C   UNL     1      -2.723   0.621  -0.952  1.00  0.00     0.122 C 
ATOM      3  C   UNL     1      -2.274   2.071  -0.810  1.00  0.00     0.028 C 
ENDBRANCH   1   2
BRANCH   1   4
ATOM      4  C   UNL     1      -3.721  -0.061   1.241  1.00  0.00     0.223 C 
ATOM      5  O   UNL     1      -3.675  -0.432   2.416  1.00  0.00    -0.275 OA
ATOM      6  C   UNL     1      -5.029   0.513   0.740  1.00  0.00     0.115 C 
ENDBRANCH   1   4
BRANCH   1   7
ATOM      7  C   UNL     1      -1.426  -0.836   0.627  1.00  0.00     0.044 A 
ATOM      8  C   UNL     1      -1.368  -1.810   1.634  1.00  0.00     0.026 A 
ATOM      9  C   UNL     1      -0.239  -0.611  -0.099  1.00  0.00     0.036 A 
ATOM     10  C   UNL     1      -0.186  -2.498   1.930  1.00  0.00     0.003 A 
ATOM     11  C   UNL     1       0.960  -1.297   0.179  1.00  0.00     0.002 A 
ATOM     12  C   UNL     1       0.975  -2.239   1.211  1.00  0.00     0.010 A 
BRANCH  11  13
ATOM     13  C   UNL     1       2.183  -1.024  -0.609  1.00  0.00     0.076 C 
ATOM     14  C   UNL     1       2.813  -2.052  -1.211  1.00  0.00     0.049 C 
ATOM     15  N   UNL     1       2.698   0.279  -0.770  1.00  0.00    -0.213 N 
ATOM     16  C   UNL     1       4.026  -1.709  -1.995  1.00  0.00     0.116 C 
ATOM     17  N   UNL     1       2.212   1.453  -0.271  1.00  0.00    -0.173 NA
ATOM     18  C   UNL     1       3.859   0.499  -1.534  1.00  0.00     0.173 A 
ATOM     19  N   UNL     1       4.526  -0.523  -2.155  1.00  0.00    -0.236 NA
ATOM     20  C   UNL     1       3.066   2.384  -0.697  1.00  0.00     0.157 A 
ATOM     21  C   UNL     1       4.096   1.854  -1.480  1.00  0.00     0.117 A 
ATOM     22  C   UNL     1       5.164   2.559  -2.098  1.00  0.00     0.105 C 
ATOM     23  N   UNL     1       6.019   3.174  -2.587  1.00  0.00    -0.192 NA
ENDBRANCH  11  13
ENDBRANCH   1   7
TORSDOF 4
