REMARK SMILES Cc1ccc(-c2nc3ccc(C)cn3c2CC(=O)N(C)C)cc1
REMARK SMILES IDX 6 1 7 2 8 3 9 4 10 5 11 6 12 7 13 8 14 9 15 10 5 11 2 12
REMARK SMILES IDX 3 13 23 14 4 15 22 16 1 17 16 18 17 19 18 20 19 21 20 22
REMARK SMILES IDX 21 23
REMARK H PARENT
ROOT
ATOM      1  C   UNL     1       1.060   0.321  -0.461  1.00  0.00     0.093 A 
ATOM      2  N   UNL     1       2.090   0.848   0.279  1.00  0.00    -0.228 NA
ATOM      3  C   UNL     1       1.546   1.789   1.015  1.00  0.00     0.137 A 
ATOM      4  C   UNL     1       2.130   2.691   1.948  1.00  0.00     0.048 C 
ATOM      5  C   UNL     1       1.363   3.609   2.565  1.00  0.00     0.009 C 
ATOM      6  C   UNL     1      -0.070   3.709   2.304  1.00  0.00    -0.034 C 
ATOM      7  C   UNL     1      -0.844   4.765   3.027  1.00  0.00     0.046 C 
ATOM      8  C   UNL     1      -0.622   2.846   1.429  1.00  0.00     0.096 C 
ATOM      9  N   UNL     1       0.174   1.886   0.798  1.00  0.00    -0.303 N 
ATOM     10  C   UNL     1      -0.157   0.890  -0.112  1.00  0.00     0.060 A 
ENDROOT
BRANCH   1  11
ATOM     11  C   UNL     1       1.289  -0.735  -1.429  1.00  0.00     0.002 A 
ATOM     12  C   UNL     1       1.773  -2.808  -3.274  1.00  0.00    -0.051 A 
ATOM     13  C   UNL     1       2.324  -2.860  -1.989  1.00  0.00     0.004 A 
ATOM     14  C   UNL     1       0.976  -1.713  -3.629  1.00  0.00     0.004 A 
ATOM     15  C   UNL     1       2.093  -1.825  -1.079  1.00  0.00     0.011 A 
ATOM     16  C   UNL     1       0.745  -0.679  -2.717  1.00  0.00     0.011 A 
ATOM     17  C   UNL     1       1.997  -3.931  -4.243  1.00  0.00     0.044 C 
ENDBRANCH   1  11
BRANCH  10  18
ATOM     18  C   UNL     1      -1.560   0.595  -0.543  1.00  0.00     0.157 C 
BRANCH  18  19
ATOM     19  C   UNL     1      -2.427   0.136   0.629  1.00  0.00     0.228 C 
ATOM     20  O   UNL     1      -3.244   0.926   1.113  1.00  0.00    -0.274 OA
ATOM     21  N   UNL     1      -2.276  -1.153   1.122  1.00  0.00    -0.348 N 
ATOM     22  C   UNL     1      -1.366  -2.153   0.586  1.00  0.00     0.146 C 
ATOM     23  C   UNL     1      -2.994  -1.534   2.328  1.00  0.00     0.146 C 
ENDBRANCH  18  19
ENDBRANCH  10  18
TORSDOF 3
