REMARK SMILES CN1CCN(C(=O)OC2c3nccnc3C(=O)N2c2ccc(Cl)cn2)CC1
REMARK SMILES IDX 9 1 10 2 11 3 12 4 13 5 14 6 15 7 16 8 17 9 18 10 8 11 6 12
REMARK SMILES IDX 2 13 3 14 27 15 4 16 26 17 5 18 7 19 1 20 19 21 20 22 25 23
REMARK SMILES IDX 21 24 24 25 22 26 23 27
REMARK H PARENT
ROOT
ATOM      1  C   UNL     1      -1.767   0.994  -0.426  1.00  0.00     0.338 C 
ATOM      2  C   UNL     1      -1.716   2.430  -0.886  1.00  0.00     0.134 A 
ATOM      3  N   UNL     1      -1.232   2.912  -2.054  1.00  0.00    -0.251 NA
ATOM      4  C   UNL     1      -1.313   4.263  -2.165  1.00  0.00     0.131 A 
ATOM      5  C   UNL     1      -1.845   5.077  -1.163  1.00  0.00     0.132 A 
ATOM      6  N   UNL     1      -2.326   4.589   0.007  1.00  0.00    -0.247 NA
ATOM      7  C   UNL     1      -2.234   3.247   0.095  1.00  0.00     0.156 A 
ATOM      8  C   UNL     1      -2.677   2.418   1.225  1.00  0.00     0.283 C 
ATOM      9  O   UNL     1      -3.188   2.867   2.235  1.00  0.00    -0.267 OA
ATOM     10  N   UNL     1      -2.416   1.099   0.877  1.00  0.00    -0.248 N 
ENDROOT
BRANCH   1  11
ATOM     11  O   UNL     1      -0.435   0.527  -0.239  1.00  0.00    -0.419 OA
BRANCH  11  12
ATOM     12  C   UNL     1       0.033  -0.236  -1.258  1.00  0.00     0.412 C 
ATOM     13  N   UNL     1       3.910  -1.979  -0.374  1.00  0.00    -0.303 NA
ATOM     14  C   UNL     1       3.578  -0.591   0.006  1.00  0.00     0.106 C 
ATOM     15  C   UNL     1       2.907  -2.576  -1.282  1.00  0.00     0.106 C 
ATOM     16  C   UNL     1       2.069  -0.356   0.189  1.00  0.00     0.138 C 
ATOM     17  C   UNL     1       1.966  -1.574  -1.977  1.00  0.00     0.138 C 
ATOM     18  N   UNL     1       1.314  -0.687  -1.020  1.00  0.00    -0.306 N 
ATOM     19  O   UNL     1      -0.604  -0.500  -2.270  1.00  0.00    -0.224 OA
ATOM     20  C   UNL     1       5.260  -2.056  -0.926  1.00  0.00     0.105 C 
ENDBRANCH  11  12
ENDBRANCH   1  11
BRANCH  10  21
ATOM     21  C   UNL     1      -2.733  -0.062   1.602  1.00  0.00     0.138 A 
ATOM     22  C   UNL     1      -3.312  -0.016   2.868  1.00  0.00     0.049 A 
ATOM     23  N   UNL     1      -2.456  -1.245   1.003  1.00  0.00    -0.237 NA
ATOM     24  C   UNL     1      -3.608  -1.207   3.538  1.00  0.00     0.026 A 
ATOM     25  C   UNL     1      -2.750  -2.389   1.671  1.00  0.00     0.134 A 
ATOM     26  C   UNL     1      -3.322  -2.418   2.929  1.00  0.00     0.059 A 
ATOM     27  Cl  UNL     1      -3.666  -3.902   3.714  1.00  0.00    -0.083 Cl
ENDBRANCH  10  21
TORSDOF 3
