MODEL 1
REMARK VINA RESULT:    -6.870      0.000      0.000
REMARK INTER + INTRA:          -8.368
REMARK INTER:                  -7.673
REMARK INTRA:                  -0.695
REMARK UNBOUND:                -0.695
REMARK SMILES O=C1CN=C(c2ccccc2Cl)c2cc([N+](=O)[O-])ccc2N1
REMARK SMILES IDX 1 1 2 2 3 3 4 4 5 5 13 6 14 7 15 8 19 9 20 10 21 11 22 12
REMARK SMILES IDX 6 14 7 15 11 16 8 17 10 18 9 19 12 20 16 21 17 22 18 23
REMARK H PARENT 22 13
ROOT
ATOM      1  O   UNL     1     138.100 101.286 134.047  1.00  0.00    -0.273 OA
ATOM      2  C   UNL     1     139.057 100.513 134.017  1.00  0.00     0.246 C 
ATOM      3  C   UNL     1     140.057 100.485 132.879  1.00  0.00     0.243 C 
ATOM      4  N   UNL     1     140.013  99.202 132.194  1.00  0.00    -0.274 NA
ATOM      5  C   UNL     1     140.442  98.147 132.793  1.00  0.00     0.076 C 
ATOM      6  C   UNL     1     140.938  98.064 134.201  1.00  0.00     0.031 A 
ATOM      7  C   UNL     1     141.977  97.158 134.486  1.00  0.00     0.098 A 
ATOM      8  C   UNL     1     142.355  96.914 135.811  1.00  0.00     0.270 A 
ATOM      9  C   UNL     1     141.697  97.552 136.865  1.00  0.00     0.088 A 
ATOM     10  C   UNL     1     140.675  98.461 136.583  1.00  0.00     0.034 A 
ATOM     11  C   UNL     1     140.311  98.752 135.258  1.00  0.00     0.051 A 
ATOM     12  N   UNL     1     139.306  99.719 135.105  1.00  0.00    -0.324 N 
ATOM     13  H   UNL     1     138.715  99.948 135.895  1.00  0.00     0.170 HD
ENDROOT
BRANCH   5  14
ATOM     14  C   UNL     1     140.377  96.884 132.012  1.00  0.00     0.019 A 
ATOM     15  C   UNL     1     141.318  96.697 130.990  1.00  0.00     0.012 A 
ATOM     16  C   UNL     1     139.427  95.895 132.288  1.00  0.00     0.050 A 
ATOM     17  C   UNL     1     141.301  95.523 130.240  1.00  0.00     0.001 A 
ATOM     18  C   UNL     1     139.416  94.722 131.531  1.00  0.00     0.021 A 
ATOM     19  C   UNL     1     140.350  94.537 130.508  1.00  0.00     0.002 A 
ATOM     20  Cl  UNL     1     138.217  96.092 133.504  1.00  0.00    -0.084 Cl
ENDBRANCH   5  14
BRANCH   8  21
ATOM     21  N   UNL     1     143.435  95.959 136.099  1.00  0.00     0.062 N 
ATOM     22  O   UNL     1     143.146  94.755 136.122  1.00  0.00    -0.258 OA
ATOM     23  O   UNL     1     144.569  96.417 136.294  1.00  0.00    -0.258 OA
ENDBRANCH   8  21
TORSDOF 2
ENDMDL
MODEL 2
REMARK VINA RESULT:    -6.819      4.158      7.929
REMARK INTER + INTRA:          -8.311
REMARK INTER:                  -7.669
REMARK INTRA:                  -0.642
REMARK UNBOUND:                -0.695
REMARK SMILES O=C1CN=C(c2ccccc2Cl)c2cc([N+](=O)[O-])ccc2N1
REMARK SMILES IDX 1 1 2 2 3 3 4 4 5 5 13 6 14 7 15 8 19 9 20 10 21 11 22 12
REMARK SMILES IDX 6 14 7 15 11 16 8 17 10 18 9 19 12 20 16 21 17 22 18 23
REMARK H PARENT 22 13
ROOT
ATOM      1  O   UNL     1     146.508  92.984 135.857  1.00  0.00    -0.273 OA
ATOM      2  C   UNL     1     145.853  93.972 136.190  1.00  0.00     0.246 C 
ATOM      3  C   UNL     1     146.394  95.046 137.111  1.00  0.00     0.243 C 
ATOM      4  N   UNL     1     145.620  95.099 138.342  1.00  0.00    -0.274 NA
ATOM      5  C   UNL     1     144.407  95.528 138.312  1.00  0.00     0.076 C 
ATOM      6  C   UNL     1     143.638  95.931 137.094  1.00  0.00     0.031 A 
ATOM      7  C   UNL     1     142.711  96.985 137.215  1.00  0.00     0.098 A 
ATOM      8  C   UNL     1     141.842  97.282 136.159  1.00  0.00     0.270 A 
ATOM      9  C   UNL     1     141.873  96.530 134.982  1.00  0.00     0.088 A 
ATOM     10  C   UNL     1     142.801  95.494 134.857  1.00  0.00     0.034 A 
ATOM     11  C   UNL     1     143.710  95.208 135.889  1.00  0.00     0.051 A 
ATOM     12  N   UNL     1     144.624  94.178 135.621  1.00  0.00    -0.324 N 
ATOM     13  H   UNL     1     144.431  93.527 134.870  1.00  0.00     0.170 HD
ENDROOT
BRANCH   5  14
ATOM     14  C   UNL     1     143.698  95.566 139.618  1.00  0.00     0.019 A 
ATOM     15  C   UNL     1     142.682  94.626 139.837  1.00  0.00     0.012 A 
ATOM     16  C   UNL     1     144.036  96.489 140.613  1.00  0.00     0.050 A 
ATOM     17  C   UNL     1     141.997  94.618 141.052  1.00  0.00     0.001 A 
ATOM     18  C   UNL     1     143.345  96.475 141.826  1.00  0.00     0.021 A 
ATOM     19  C   UNL     1     142.327  95.542 142.044  1.00  0.00     0.002 A 
ATOM     20  Cl  UNL     1     145.247  97.696 140.379  1.00  0.00    -0.084 Cl
ENDBRANCH   5  14
BRANCH   8  21
ATOM     21  N   UNL     1     140.872  98.378 136.298  1.00  0.00     0.062 N 
ATOM     22  O   UNL     1     140.431  98.889 135.259  1.00  0.00    -0.258 OA
ATOM     23  O   UNL     1     140.551  98.718 137.443  1.00  0.00    -0.258 OA
ENDBRANCH   8  21
TORSDOF 2
ENDMDL
MODEL 3
REMARK VINA RESULT:    -6.719      3.767      5.741
REMARK INTER + INTRA:          -8.200
REMARK INTER:                  -7.507
REMARK INTRA:                  -0.692
REMARK UNBOUND:                -0.695
REMARK SMILES O=C1CN=C(c2ccccc2Cl)c2cc([N+](=O)[O-])ccc2N1
REMARK SMILES IDX 1 1 2 2 3 3 4 4 5 5 13 6 14 7 15 8 19 9 20 10 21 11 22 12
REMARK SMILES IDX 6 14 7 15 11 16 8 17 10 18 9 19 12 20 16 21 17 22 18 23
REMARK H PARENT 22 13
ROOT
ATOM      1  O   UNL     1     146.660  94.234 134.216  1.00  0.00    -0.273 OA
ATOM      2  C   UNL     1     145.657  94.313 134.926  1.00  0.00     0.246 C 
ATOM      3  C   UNL     1     144.419  93.472 134.699  1.00  0.00     0.243 C 
ATOM      4  N   UNL     1     143.282  94.318 134.366  1.00  0.00    -0.274 NA
ATOM      5  C   UNL     1     142.776  95.084 135.267  1.00  0.00     0.076 C 
ATOM      6  C   UNL     1     143.284  95.272 136.661  1.00  0.00     0.031 A 
ATOM      7  C   UNL     1     142.343  95.499 137.684  1.00  0.00     0.098 A 
ATOM      8  C   UNL     1     142.771  95.857 138.968  1.00  0.00     0.270 A 
ATOM      9  C   UNL     1     144.132  96.005 139.245  1.00  0.00     0.088 A 
ATOM     10  C   UNL     1     145.066  95.767 138.235  1.00  0.00     0.034 A 
ATOM     11  C   UNL     1     144.658  95.366 136.952  1.00  0.00     0.051 A 
ATOM     12  N   UNL     1     145.693  95.109 136.041  1.00  0.00    -0.324 N 
ATOM     13  H   UNL     1     146.620  95.471 136.229  1.00  0.00     0.170 HD
ENDROOT
BRANCH   5  14
ATOM     14  C   UNL     1     141.606  95.899 134.846  1.00  0.00     0.019 A 
ATOM     15  C   UNL     1     140.379  95.243 134.676  1.00  0.00     0.012 A 
ATOM     16  C   UNL     1     141.706  97.280 134.642  1.00  0.00     0.050 A 
ATOM     17  C   UNL     1     139.254  95.971 134.291  1.00  0.00     0.001 A 
ATOM     18  C   UNL     1     140.573  98.000 134.256  1.00  0.00     0.021 A 
ATOM     19  C   UNL     1     139.350  97.347 134.080  1.00  0.00     0.002 A 
ATOM     20  Cl  UNL     1     143.201  98.130 134.794  1.00  0.00    -0.084 Cl
ENDBRANCH   5  14
BRANCH   8  21
ATOM     21  N   UNL     1     141.781  96.101 140.027  1.00  0.00     0.062 N 
ATOM     22  O   UNL     1     140.817  96.828 139.754  1.00  0.00    -0.258 OA
ATOM     23  O   UNL     1     141.969  95.560 141.124  1.00  0.00    -0.258 OA
ENDBRANCH   8  21
TORSDOF 2
ENDMDL
MODEL 4
REMARK VINA RESULT:    -6.525      3.004      4.844
REMARK INTER + INTRA:          -7.983
REMARK INTER:                  -7.277
REMARK INTRA:                  -0.706
REMARK UNBOUND:                -0.695
REMARK SMILES O=C1CN=C(c2ccccc2Cl)c2cc([N+](=O)[O-])ccc2N1
REMARK SMILES IDX 1 1 2 2 3 3 4 4 5 5 13 6 14 7 15 8 19 9 20 10 21 11 22 12
REMARK SMILES IDX 6 14 7 15 11 16 8 17 10 18 9 19 12 20 16 21 17 22 18 23
REMARK H PARENT 22 13
ROOT
ATOM      1  O   UNL     1     145.836  94.927 133.290  1.00  0.00    -0.273 OA
ATOM      2  C   UNL     1     144.816  95.093 133.960  1.00  0.00     0.246 C 
ATOM      3  C   UNL     1     143.468  94.527 133.562  1.00  0.00     0.243 C 
ATOM      4  N   UNL     1     142.521  95.600 133.300  1.00  0.00    -0.274 NA
ATOM      5  C   UNL     1     142.095  96.323 134.276  1.00  0.00     0.076 C 
ATOM      6  C   UNL     1     142.530  96.233 135.704  1.00  0.00     0.031 A 
ATOM      7  C   UNL     1     141.575  96.492 136.705  1.00  0.00     0.098 A 
ATOM      8  C   UNL     1     141.969  96.597 138.044  1.00  0.00     0.270 A 
ATOM      9  C   UNL     1     143.313  96.460 138.400  1.00  0.00     0.088 A 
ATOM     10  C   UNL     1     144.259  96.189 137.409  1.00  0.00     0.034 A 
ATOM     11  C   UNL     1     143.877  96.038 136.066  1.00  0.00     0.051 A 
ATOM     12  N   UNL     1     144.912  95.718 135.175  1.00  0.00    -0.324 N 
ATOM     13  H   UNL     1     145.872  95.879 135.453  1.00  0.00     0.170 HD
ENDROOT
BRANCH   5  14
ATOM     14  C   UNL     1     141.116  97.383 133.921  1.00  0.00     0.019 A 
ATOM     15  C   UNL     1     141.604  98.681 133.715  1.00  0.00     0.012 A 
ATOM     16  C   UNL     1     139.752  97.107 133.772  1.00  0.00     0.050 A 
ATOM     17  C   UNL     1     140.722  99.704 133.370  1.00  0.00     0.001 A 
ATOM     18  C   UNL     1     138.877  98.138 133.427  1.00  0.00     0.021 A 
ATOM     19  C   UNL     1     139.361  99.435 133.227  1.00  0.00     0.002 A 
ATOM     20  Cl  UNL     1     139.092  95.538 134.057  1.00  0.00    -0.084 Cl
ENDBRANCH   5  14
BRANCH   8  21
ATOM     21  N   UNL     1     140.966  96.877 139.082  1.00  0.00     0.062 N 
ATOM     22  O   UNL     1     141.214  96.501 140.236  1.00  0.00    -0.258 OA
ATOM     23  O   UNL     1     139.939  97.476 138.739  1.00  0.00    -0.258 OA
ENDBRANCH   8  21
TORSDOF 2
ENDMDL
MODEL 5
REMARK VINA RESULT:    -6.516      3.203      4.985
REMARK INTER + INTRA:          -7.972
REMARK INTER:                  -7.261
REMARK INTRA:                  -0.711
REMARK UNBOUND:                -0.695
REMARK SMILES O=C1CN=C(c2ccccc2Cl)c2cc([N+](=O)[O-])ccc2N1
REMARK SMILES IDX 1 1 2 2 3 3 4 4 5 5 13 6 14 7 15 8 19 9 20 10 21 11 22 12
REMARK SMILES IDX 6 14 7 15 11 16 8 17 10 18 9 19 12 20 16 21 17 22 18 23
REMARK H PARENT 22 13
ROOT
ATOM      1  O   UNL     1     142.319  95.136 139.488  1.00  0.00    -0.273 OA
ATOM      2  C   UNL     1     142.602  95.745 138.456  1.00  0.00     0.246 C 
ATOM      3  C   UNL     1     142.464  97.247 138.323  1.00  0.00     0.243 C 
ATOM      4  N   UNL     1     141.476  97.581 137.309  1.00  0.00    -0.274 NA
ATOM      5  C   UNL     1     141.733  97.346 136.070  1.00  0.00     0.076 C 
ATOM      6  C   UNL     1     142.955  96.675 135.528  1.00  0.00     0.031 A 
ATOM      7  C   UNL     1     143.448  97.103 134.281  1.00  0.00     0.098 A 
ATOM      8  C   UNL     1     144.476  96.394 133.649  1.00  0.00     0.270 A 
ATOM      9  C   UNL     1     145.013  95.248 134.240  1.00  0.00     0.088 A 
ATOM     10  C   UNL     1     144.534  94.831 135.483  1.00  0.00     0.034 A 
ATOM     11  C   UNL     1     143.533  95.553 136.153  1.00  0.00     0.051 A 
ATOM     12  N   UNL     1     143.174  95.062 137.416  1.00  0.00    -0.324 N 
ATOM     13  H   UNL     1     143.417  94.110 137.665  1.00  0.00     0.170 HD
ENDROOT
BRANCH   5  14
ATOM     14  C   UNL     1     140.675  97.735 135.101  1.00  0.00     0.019 A 
ATOM     15  C   UNL     1     140.558  99.092 134.771  1.00  0.00     0.012 A 
ATOM     16  C   UNL     1     139.831  96.787 134.512  1.00  0.00     0.050 A 
ATOM     17  C   UNL     1     139.586  99.500 133.859  1.00  0.00     0.001 A 
ATOM     18  C   UNL     1     138.860  97.206 133.600  1.00  0.00     0.021 A 
ATOM     19  C   UNL     1     138.737  98.559 133.275  1.00  0.00     0.002 A 
ATOM     20  Cl  UNL     1     139.903  95.111 134.916  1.00  0.00    -0.084 Cl
ENDBRANCH   5  14
BRANCH   8  21
ATOM     21  N   UNL     1     144.977  96.843 132.342  1.00  0.00     0.062 N 
ATOM     22  O   UNL     1     144.640  97.970 131.954  1.00  0.00    -0.258 OA
ATOM     23  O   UNL     1     145.710  96.070 131.713  1.00  0.00    -0.258 OA
ENDBRANCH   8  21
TORSDOF 2
ENDMDL
MODEL 6
REMARK VINA RESULT:    -6.477      2.958      5.715
REMARK INTER + INTRA:          -7.929
REMARK INTER:                  -7.225
REMARK INTRA:                  -0.704
REMARK UNBOUND:                -0.695
REMARK SMILES O=C1CN=C(c2ccccc2Cl)c2cc([N+](=O)[O-])ccc2N1
REMARK SMILES IDX 1 1 2 2 3 3 4 4 5 5 13 6 14 7 15 8 19 9 20 10 21 11 22 12
REMARK SMILES IDX 6 14 7 15 11 16 8 17 10 18 9 19 12 20 16 21 17 22 18 23
REMARK H PARENT 22 13
ROOT
ATOM      1  O   UNL     1     141.186  94.968 130.043  1.00  0.00    -0.273 OA
ATOM      2  C   UNL     1     141.203  95.956 130.778  1.00  0.00     0.246 C 
ATOM      3  C   UNL     1     142.484  96.653 131.189  1.00  0.00     0.243 C 
ATOM      4  N   UNL     1     142.675  96.561 132.628  1.00  0.00    -0.274 NA
ATOM      5  C   UNL     1     141.893  97.212 133.416  1.00  0.00     0.076 C 
ATOM      6  C   UNL     1     140.711  98.035 133.014  1.00  0.00     0.031 A 
ATOM      7  C   UNL     1     140.420  99.189 133.766  1.00  0.00     0.098 A 
ATOM      8  C   UNL     1     139.230  99.892 133.545  1.00  0.00     0.270 A 
ATOM      9  C   UNL     1     138.313  99.451 132.588  1.00  0.00     0.088 A 
ATOM     10  C   UNL     1     138.608  98.314 131.832  1.00  0.00     0.034 A 
ATOM     11  C   UNL     1     139.816  97.620 132.009  1.00  0.00     0.051 A 
ATOM     12  N   UNL     1     140.017  96.526 131.155  1.00  0.00    -0.324 N 
ATOM     13  H   UNL     1     139.223  96.123 130.672  1.00  0.00     0.170 HD
ENDROOT
BRANCH   5  14
ATOM     14  C   UNL     1     142.173  97.075 134.870  1.00  0.00     0.019 A 
ATOM     15  C   UNL     1     141.386  96.179 135.605  1.00  0.00     0.012 A 
ATOM     16  C   UNL     1     143.198  97.794 135.493  1.00  0.00     0.050 A 
ATOM     17  C   UNL     1     141.621  96.011 136.969  1.00  0.00     0.001 A 
ATOM     18  C   UNL     1     143.426  97.620 136.860  1.00  0.00     0.021 A 
ATOM     19  C   UNL     1     142.638  96.731 137.596  1.00  0.00     0.002 A 
ATOM     20  Cl  UNL     1     144.168  98.944 134.645  1.00  0.00    -0.084 Cl
ENDBRANCH   5  14
BRANCH   8  21
ATOM     21  N   UNL     1     138.930 101.090 134.342  1.00  0.00     0.062 N 
ATOM     22  O   UNL     1     138.983 100.987 135.575  1.00  0.00    -0.258 OA
ATOM     23  O   UNL     1     138.649 102.130 133.732  1.00  0.00    -0.258 OA
ENDBRANCH   8  21
TORSDOF 2
ENDMDL
MODEL 7
REMARK VINA RESULT:    -6.362      2.912      4.970
REMARK INTER + INTRA:          -7.801
REMARK INTER:                  -7.114
REMARK INTRA:                  -0.687
REMARK UNBOUND:                -0.695
REMARK SMILES O=C1CN=C(c2ccccc2Cl)c2cc([N+](=O)[O-])ccc2N1
REMARK SMILES IDX 1 1 2 2 3 3 4 4 5 5 13 6 14 7 15 8 19 9 20 10 21 11 22 12
REMARK SMILES IDX 6 14 7 15 11 16 8 17 10 18 9 19 12 20 16 21 17 22 18 23
REMARK H PARENT 22 13
ROOT
ATOM      1  O   UNL     1     140.592  97.406 138.049  1.00  0.00    -0.273 OA
ATOM      2  C   UNL     1     140.538  97.374 136.820  1.00  0.00     0.246 C 
ATOM      3  C   UNL     1     140.425  96.083 136.035  1.00  0.00     0.243 C 
ATOM      4  N   UNL     1     141.600  95.889 135.200  1.00  0.00    -0.274 NA
ATOM      5  C   UNL     1     141.796  96.660 134.188  1.00  0.00     0.076 C 
ATOM      6  C   UNL     1     140.956  97.833 133.790  1.00  0.00     0.031 A 
ATOM      7  C   UNL     1     140.810  98.106 132.417  1.00  0.00     0.098 A 
ATOM      8  C   UNL     1     140.187  99.287 131.997  1.00  0.00     0.270 A 
ATOM      9  C   UNL     1     139.717 100.212 132.932  1.00  0.00     0.088 A 
ATOM     10  C   UNL     1     139.850  99.934 134.295  1.00  0.00     0.034 A 
ATOM     11  C   UNL     1     140.434  98.735 134.736  1.00  0.00     0.051 A 
ATOM     12  N   UNL     1     140.462  98.552 136.126  1.00  0.00    -0.324 N 
ATOM     13  H   UNL     1     140.338  99.352 136.734  1.00  0.00     0.170 HD
ENDROOT
BRANCH   5  14
ATOM     14  C   UNL     1     143.011  96.379 133.381  1.00  0.00     0.019 A 
ATOM     15  C   UNL     1     143.010  95.232 132.576  1.00  0.00     0.012 A 
ATOM     16  C   UNL     1     144.120  97.233 133.396  1.00  0.00     0.050 A 
ATOM     17  C   UNL     1     144.126  94.935 131.793  1.00  0.00     0.001 A 
ATOM     18  C   UNL     1     145.233  96.927 132.610  1.00  0.00     0.021 A 
ATOM     19  C   UNL     1     145.236  95.780 131.812  1.00  0.00     0.002 A 
ATOM     20  Cl  UNL     1     144.192  98.633 134.403  1.00  0.00    -0.084 Cl
ENDBRANCH   5  14
BRANCH   8  21
ATOM     21  N   UNL     1     140.047  99.569 130.561  1.00  0.00     0.062 N 
ATOM     22  O   UNL     1     139.444  98.738 129.869  1.00  0.00    -0.258 OA
ATOM     23  O   UNL     1     140.536 100.623 130.133  1.00  0.00    -0.258 OA
ENDBRANCH   8  21
TORSDOF 2
ENDMDL
MODEL 8
REMARK VINA RESULT:    -6.151      2.638      4.538
REMARK INTER + INTRA:          -7.565
REMARK INTER:                  -7.377
REMARK INTRA:                  -0.188
REMARK UNBOUND:                -0.695
REMARK SMILES O=C1CN=C(c2ccccc2Cl)c2cc([N+](=O)[O-])ccc2N1
REMARK SMILES IDX 1 1 2 2 3 3 4 4 5 5 13 6 14 7 15 8 19 9 20 10 21 11 22 12
REMARK SMILES IDX 6 14 7 15 11 16 8 17 10 18 9 19 12 20 16 21 17 22 18 23
REMARK H PARENT 22 13
ROOT
ATOM      1  O   UNL     1     138.157  99.481 133.169  1.00  0.00    -0.273 OA
ATOM      2  C   UNL     1     139.105  98.698 133.244  1.00  0.00     0.246 C 
ATOM      3  C   UNL     1     138.927  97.210 133.463  1.00  0.00     0.243 C 
ATOM      4  N   UNL     1     139.517  96.807 134.730  1.00  0.00    -0.274 NA
ATOM      5  C   UNL     1     140.797  96.825 134.870  1.00  0.00     0.076 C 
ATOM      6  C   UNL     1     141.793  97.301 133.862  1.00  0.00     0.031 A 
ATOM      7  C   UNL     1     143.038  96.645 133.801  1.00  0.00     0.098 A 
ATOM      8  C   UNL     1     144.067  97.161 133.004  1.00  0.00     0.270 A 
ATOM      9  C   UNL     1     143.876  98.336 132.273  1.00  0.00     0.088 A 
ATOM     10  C   UNL     1     142.637  98.978 132.322  1.00  0.00     0.034 A 
ATOM     11  C   UNL     1     141.579  98.453 133.082  1.00  0.00     0.051 A 
ATOM     12  N   UNL     1     140.371  99.163 133.009  1.00  0.00    -0.324 N 
ATOM     13  H   UNL     1     140.377 100.117 132.671  1.00  0.00     0.170 HD
ENDROOT
BRANCH   5  14
ATOM     14  C   UNL     1     141.313  96.380 136.191  1.00  0.00     0.019 A 
ATOM     15  C   UNL     1     141.965  95.141 136.254  1.00  0.00     0.012 A 
ATOM     16  C   UNL     1     141.179  97.170 137.338  1.00  0.00     0.050 A 
ATOM     17  C   UNL     1     142.475  94.689 137.471  1.00  0.00     0.001 A 
ATOM     18  C   UNL     1     141.692  96.709 138.552  1.00  0.00     0.021 A 
ATOM     19  C   UNL     1     142.337  95.471 138.619  1.00  0.00     0.002 A 
ATOM     20  Cl  UNL     1     140.346  98.682 137.326  1.00  0.00    -0.084 Cl
ENDBRANCH   5  14
BRANCH   8  21
ATOM     21  N   UNL     1     145.366  96.475 132.954  1.00  0.00     0.062 N 
ATOM     22  O   UNL     1     146.016  96.399 134.006  1.00  0.00    -0.258 OA
ATOM     23  O   UNL     1     145.728  96.011 131.865  1.00  0.00    -0.258 OA
ENDBRANCH   8  21
TORSDOF 2
ENDMDL
MODEL 9
REMARK VINA RESULT:    -6.141      3.228      5.002
REMARK INTER + INTRA:          -7.554
REMARK INTER:                  -6.856
REMARK INTRA:                  -0.699
REMARK UNBOUND:                -0.695
REMARK SMILES O=C1CN=C(c2ccccc2Cl)c2cc([N+](=O)[O-])ccc2N1
REMARK SMILES IDX 1 1 2 2 3 3 4 4 5 5 13 6 14 7 15 8 19 9 20 10 21 11 22 12
REMARK SMILES IDX 6 14 7 15 11 16 8 17 10 18 9 19 12 20 16 21 17 22 18 23
REMARK H PARENT 22 13
ROOT
ATOM      1  O   UNL     1     139.721 101.801 133.200  1.00  0.00    -0.273 OA
ATOM      2  C   UNL     1     139.389 100.616 133.185  1.00  0.00     0.246 C 
ATOM      3  C   UNL     1     138.996  99.856 134.436  1.00  0.00     0.243 C 
ATOM      4  N   UNL     1     139.934  98.772 134.689  1.00  0.00    -0.274 NA
ATOM      5  C   UNL     1     139.957  97.756 133.901  1.00  0.00     0.076 C 
ATOM      6  C   UNL     1     139.148  97.578 132.655  1.00  0.00     0.031 A 
ATOM      7  C   UNL     1     138.718  96.279 132.324  1.00  0.00     0.098 A 
ATOM      8  C   UNL     1     138.114  96.031 131.086  1.00  0.00     0.270 A 
ATOM      9  C   UNL     1     137.944  97.065 130.161  1.00  0.00     0.088 A 
ATOM     10  C   UNL     1     138.358  98.356 130.495  1.00  0.00     0.034 A 
ATOM     11  C   UNL     1     138.927  98.633 131.749  1.00  0.00     0.051 A 
ATOM     12  N   UNL     1     139.254  99.976 131.982  1.00  0.00    -0.324 N 
ATOM     13  H   UNL     1     139.335 100.610 131.196  1.00  0.00     0.170 HD
ENDROOT
BRANCH   5  14
ATOM     14  C   UNL     1     140.932  96.688 134.245  1.00  0.00     0.019 A 
ATOM     15  C   UNL     1     140.616  95.832 135.309  1.00  0.00     0.012 A 
ATOM     16  C   UNL     1     142.120  96.516 133.526  1.00  0.00     0.050 A 
ATOM     17  C   UNL     1     141.497  94.810 135.660  1.00  0.00     0.001 A 
ATOM     18  C   UNL     1     142.997  95.490 133.885  1.00  0.00     0.021 A 
ATOM     19  C   UNL     1     142.687  94.640 134.950  1.00  0.00     0.002 A 
ATOM     20  Cl  UNL     1     142.580  97.568 132.237  1.00  0.00    -0.084 Cl
ENDBRANCH   5  14
BRANCH   8  21
ATOM     21  N   UNL     1     137.677  94.670 130.745  1.00  0.00     0.062 N 
ATOM     22  O   UNL     1     136.485  94.387 130.929  1.00  0.00    -0.258 OA
ATOM     23  O   UNL     1     138.525  93.892 130.291  1.00  0.00    -0.258 OA
ENDBRANCH   8  21
TORSDOF 2
ENDMDL
