MODEL 1
REMARK VINA RESULT:    -8.546      0.000      0.000
REMARK INTER + INTRA:          -9.611
REMARK INTER:                  -9.295
REMARK INTRA:                  -0.316
REMARK UNBOUND:                -0.316
REMARK SMILES O=C1Nc2ccc(Cl)cc2C(c2ccccc2Cl)=NC1O
REMARK SMILES IDX 1 1 2 2 3 3 4 4 5 5 6 6 7 7 8 8 9 9 10 10 11 11 19 12 20 13
REMARK SMILES IDX 21 15 12 17 13 18 17 19 14 20 16 21 15 22 18 23
REMARK H PARENT 3 14 21 16
ROOT
ATOM      1  O   UNL     1     115.525 155.711 113.910  1.00  0.00    -0.269 OA
ATOM      2  C   UNL     1     116.277 156.486 113.313  1.00  0.00     0.276 C 
ATOM      3  N   UNL     1     115.837 157.757 113.039  1.00  0.00    -0.321 N 
ATOM      4  C   UNL     1     116.531 158.776 112.372  1.00  0.00     0.050 A 
ATOM      5  C   UNL     1     116.130 160.087 112.675  1.00  0.00     0.028 A 
ATOM      6  C   UNL     1     116.789 161.184 112.115  1.00  0.00     0.023 A 
ATOM      7  C   UNL     1     117.845 160.976 111.237  1.00  0.00     0.041 A 
ATOM      8  Cl  UNL     1     118.663 162.324 110.552  1.00  0.00    -0.084 Cl
ATOM      9  C   UNL     1     118.228 159.684 110.889  1.00  0.00     0.033 A 
ATOM     10  C   UNL     1     117.561 158.574 111.436  1.00  0.00     0.026 A 
ATOM     11  C   UNL     1     117.867 157.223 110.876  1.00  0.00     0.079 C 
ATOM     12  N   UNL     1     117.910 156.114 111.527  1.00  0.00    -0.243 NA
ATOM     13  C   UNL     1     117.741 156.125 112.972  1.00  0.00     0.323 C 
ATOM     14  H   UNL     1     114.949 157.968 113.474  1.00  0.00     0.170 HD
ENDROOT
BRANCH  13  15
ATOM     15  O   UNL     1     118.671 156.919 113.695  1.00  0.00    -0.364 OA
ATOM     16  H   UNL     1     118.525 156.707 114.632  1.00  0.00     0.213 HD
ENDBRANCH  13  15
BRANCH  11  17
ATOM     17  C   UNL     1     118.077 157.126 109.407  1.00  0.00     0.019 A 
ATOM     18  C   UNL     1     119.351 157.435 108.908  1.00  0.00     0.012 A 
ATOM     19  C   UNL     1     117.045 156.765 108.535  1.00  0.00     0.050 A 
ATOM     20  C   UNL     1     119.591 157.372 107.536  1.00  0.00     0.001 A 
ATOM     21  C   UNL     1     117.296 156.704 107.162  1.00  0.00     0.021 A 
ATOM     22  C   UNL     1     118.565 157.007 106.664  1.00  0.00     0.002 A 
ATOM     23  Cl  UNL     1     115.470 156.328 109.091  1.00  0.00    -0.084 Cl
ENDBRANCH  11  17
TORSDOF 2
ENDMDL
MODEL 2
REMARK VINA RESULT:    -8.316      1.546      2.012
REMARK INTER + INTRA:          -9.361
REMARK INTER:                  -9.167
REMARK INTRA:                  -0.193
REMARK UNBOUND:                -0.316
REMARK SMILES O=C1Nc2ccc(Cl)cc2C(c2ccccc2Cl)=NC1O
REMARK SMILES IDX 1 1 2 2 3 3 4 4 5 5 6 6 7 7 8 8 9 9 10 10 11 11 19 12 20 13
REMARK SMILES IDX 21 15 12 17 13 18 17 19 14 20 16 21 15 22 18 23
REMARK H PARENT 3 14 21 16
ROOT
ATOM      1  O   UNL     1     115.881 154.869 115.028  1.00  0.00    -0.269 OA
ATOM      2  C   UNL     1     116.361 155.798 114.372  1.00  0.00     0.276 C 
ATOM      3  N   UNL     1     115.643 156.960 114.245  1.00  0.00    -0.321 N 
ATOM      4  C   UNL     1     116.007 158.118 113.544  1.00  0.00     0.050 A 
ATOM      5  C   UNL     1     115.411 159.311 113.982  1.00  0.00     0.028 A 
ATOM      6  C   UNL     1     115.744 160.534 113.397  1.00  0.00     0.023 A 
ATOM      7  C   UNL     1     116.665 160.571 112.358  1.00  0.00     0.041 A 
ATOM      8  Cl  UNL     1     117.083 162.076 111.640  1.00  0.00    -0.084 Cl
ATOM      9  C   UNL     1     117.234 159.393 111.879  1.00  0.00     0.033 A 
ATOM     10  C   UNL     1     116.893 158.156 112.452  1.00  0.00     0.026 A 
ATOM     11  C   UNL     1     117.364 156.912 111.772  1.00  0.00     0.079 C 
ATOM     12  N   UNL     1     117.727 155.816 112.340  1.00  0.00    -0.243 NA
ATOM     13  C   UNL     1     117.793 155.751 113.793  1.00  0.00     0.323 C 
ATOM     14  H   UNL     1     114.811 156.973 114.822  1.00  0.00     0.170 HD
ENDROOT
BRANCH  13  15
ATOM     15  O   UNL     1     118.654 156.697 114.414  1.00  0.00    -0.364 OA
ATOM     16  H   UNL     1     118.263 156.873 115.285  1.00  0.00     0.213 HD
ENDBRANCH  13  15
BRANCH  11  17
ATOM     17  C   UNL     1     117.351 156.903 110.285  1.00  0.00     0.019 A 
ATOM     18  C   UNL     1     116.256 156.308 109.644  1.00  0.00     0.012 A 
ATOM     19  C   UNL     1     118.400 157.445 109.534  1.00  0.00     0.050 A 
ATOM     20  C   UNL     1     116.208 156.263 108.252  1.00  0.00     0.001 A 
ATOM     21  C   UNL     1     118.343 157.395 108.139  1.00  0.00     0.021 A 
ATOM     22  C   UNL     1     117.250 156.806 107.500  1.00  0.00     0.002 A 
ATOM     23  Cl  UNL     1     119.753 158.233 110.262  1.00  0.00    -0.084 Cl
ENDBRANCH  11  17
TORSDOF 2
ENDMDL
MODEL 3
REMARK VINA RESULT:    -7.797      3.193      5.438
REMARK INTER + INTRA:          -8.797
REMARK INTER:                  -9.261
REMARK INTRA:                   0.465
REMARK UNBOUND:                -0.316
REMARK SMILES O=C1Nc2ccc(Cl)cc2C(c2ccccc2Cl)=NC1O
REMARK SMILES IDX 1 1 2 2 3 3 4 4 5 5 6 6 7 7 8 8 9 9 10 10 11 11 19 12 20 13
REMARK SMILES IDX 21 15 12 17 13 18 17 19 14 20 16 21 15 22 18 23
REMARK H PARENT 3 14 21 16
ROOT
ATOM      1  O   UNL     1     118.308 157.414 112.353  1.00  0.00    -0.269 OA
ATOM      2  C   UNL     1     118.419 157.773 111.178  1.00  0.00     0.276 C 
ATOM      3  N   UNL     1     118.758 156.841 110.230  1.00  0.00    -0.321 N 
ATOM      4  C   UNL     1     118.938 157.046 108.855  1.00  0.00     0.050 A 
ATOM      5  C   UNL     1     118.746 155.920 108.038  1.00  0.00     0.028 A 
ATOM      6  C   UNL     1     118.841 156.020 106.649  1.00  0.00     0.023 A 
ATOM      7  C   UNL     1     119.143 157.244 106.067  1.00  0.00     0.041 A 
ATOM      8  Cl  UNL     1     119.253 157.372 104.355  1.00  0.00    -0.084 Cl
ATOM      9  C   UNL     1     119.381 158.363 106.861  1.00  0.00     0.033 A 
ATOM     10  C   UNL     1     119.302 158.268 108.261  1.00  0.00     0.026 A 
ATOM     11  C   UNL     1     119.769 159.433 109.072  1.00  0.00     0.079 C 
ATOM     12  N   UNL     1     119.269 159.844 110.185  1.00  0.00    -0.243 NA
ATOM     13  C   UNL     1     118.072 159.204 110.711  1.00  0.00     0.323 C 
ATOM     14  H   UNL     1     118.768 155.896 110.593  1.00  0.00     0.170 HD
ENDROOT
BRANCH  13  15
ATOM     15  O   UNL     1     116.935 159.229 109.858  1.00  0.00    -0.364 OA
ATOM     16  H   UNL     1     116.973 160.081 109.394  1.00  0.00     0.213 HD
ENDBRANCH  13  15
BRANCH  11  17
ATOM     17  C   UNL     1     120.974 160.158 108.591  1.00  0.00     0.019 A 
ATOM     18  C   UNL     1     121.946 159.424 107.897  1.00  0.00     0.012 A 
ATOM     19  C   UNL     1     121.160 161.524 108.835  1.00  0.00     0.050 A 
ATOM     20  C   UNL     1     123.099 160.059 107.440  1.00  0.00     0.001 A 
ATOM     21  C   UNL     1     122.320 162.152 108.372  1.00  0.00     0.021 A 
ATOM     22  C   UNL     1     123.286 161.421 107.677  1.00  0.00     0.002 A 
ATOM     23  Cl  UNL     1     119.981 162.493 109.641  1.00  0.00    -0.084 Cl
ENDBRANCH  11  17
TORSDOF 2
ENDMDL
MODEL 4
REMARK VINA RESULT:    -7.564      2.645      4.987
REMARK INTER + INTRA:          -8.543
REMARK INTER:                  -8.153
REMARK INTRA:                  -0.390
REMARK UNBOUND:                -0.316
REMARK SMILES O=C1Nc2ccc(Cl)cc2C(c2ccccc2Cl)=NC1O
REMARK SMILES IDX 1 1 2 2 3 3 4 4 5 5 6 6 7 7 8 8 9 9 10 10 11 11 19 12 20 13
REMARK SMILES IDX 21 15 12 17 13 18 17 19 14 20 16 21 15 22 18 23
REMARK H PARENT 3 14 21 16
ROOT
ATOM      1  O   UNL     1     119.083 155.665 108.100  1.00  0.00    -0.269 OA
ATOM      2  C   UNL     1     118.360 156.335 108.841  1.00  0.00     0.276 C 
ATOM      3  N   UNL     1     118.884 157.448 109.449  1.00  0.00    -0.321 N 
ATOM      4  C   UNL     1     118.233 158.331 110.323  1.00  0.00     0.050 A 
ATOM      5  C   UNL     1     118.761 159.631 110.382  1.00  0.00     0.028 A 
ATOM      6  C   UNL     1     118.159 160.611 111.173  1.00  0.00     0.023 A 
ATOM      7  C   UNL     1     117.034 160.294 111.923  1.00  0.00     0.041 A 
ATOM      8  Cl  UNL     1     116.286 161.501 112.894  1.00  0.00    -0.084 Cl
ATOM      9  C   UNL     1     116.523 158.998 111.914  1.00  0.00     0.033 A 
ATOM     10  C   UNL     1     117.131 158.002 111.131  1.00  0.00     0.026 A 
ATOM     11  C   UNL     1     116.679 156.590 111.314  1.00  0.00     0.079 C 
ATOM     12  N   UNL     1     116.587 155.688 110.401  1.00  0.00    -0.243 NA
ATOM     13  C   UNL     1     116.852 156.043 109.015  1.00  0.00     0.323 C 
ATOM     14  H   UNL     1     119.814 157.674 109.120  1.00  0.00     0.170 HD
ENDROOT
BRANCH  13  15
ATOM     15  O   UNL     1     116.040 157.079 108.479  1.00  0.00    -0.364 OA
ATOM     16  H   UNL     1     116.405 157.269 107.599  1.00  0.00     0.213 HD
ENDBRANCH  13  15
BRANCH  11  17
ATOM     17  C   UNL     1     116.364 156.150 112.700  1.00  0.00     0.019 A 
ATOM     18  C   UNL     1     115.077 155.652 112.951  1.00  0.00     0.012 A 
ATOM     19  C   UNL     1     117.299 156.244 113.735  1.00  0.00     0.050 A 
ATOM     20  C   UNL     1     114.732 155.242 114.238  1.00  0.00     0.001 A 
ATOM     21  C   UNL     1     116.944 155.830 115.022  1.00  0.00     0.021 A 
ATOM     22  C   UNL     1     115.664 155.330 115.272  1.00  0.00     0.002 A 
ATOM     23  Cl  UNL     1     118.913 156.804 113.481  1.00  0.00    -0.084 Cl
ENDBRANCH  11  17
TORSDOF 2
ENDMDL
MODEL 5
REMARK VINA RESULT:    -7.504      2.924      5.146
REMARK INTER + INTRA:          -8.478
REMARK INTER:                  -8.275
REMARK INTRA:                  -0.203
REMARK UNBOUND:                -0.316
REMARK SMILES O=C1Nc2ccc(Cl)cc2C(c2ccccc2Cl)=NC1O
REMARK SMILES IDX 1 1 2 2 3 3 4 4 5 5 6 6 7 7 8 8 9 9 10 10 11 11 19 12 20 13
REMARK SMILES IDX 21 15 12 17 13 18 17 19 14 20 16 21 15 22 18 23
REMARK H PARENT 3 14 21 16
ROOT
ATOM      1  O   UNL     1     115.316 154.462 107.259  1.00  0.00    -0.269 OA
ATOM      2  C   UNL     1     115.893 155.389 107.834  1.00  0.00     0.276 C 
ATOM      3  N   UNL     1     117.233 155.578 107.608  1.00  0.00    -0.321 N 
ATOM      4  C   UNL     1     118.064 156.561 108.164  1.00  0.00     0.050 A 
ATOM      5  C   UNL     1     119.203 156.894 107.413  1.00  0.00     0.028 A 
ATOM      6  C   UNL     1     120.071 157.901 107.840  1.00  0.00     0.023 A 
ATOM      7  C   UNL     1     119.814 158.573 109.028  1.00  0.00     0.041 A 
ATOM      8  Cl  UNL     1     120.877 159.819 109.553  1.00  0.00    -0.084 Cl
ATOM      9  C   UNL     1     118.714 158.226 109.810  1.00  0.00     0.033 A 
ATOM     10  C   UNL     1     117.844 157.204 109.395  1.00  0.00     0.026 A 
ATOM     11  C   UNL     1     116.807 156.728 110.360  1.00  0.00     0.079 C 
ATOM     12  N   UNL     1     115.615 156.335 110.076  1.00  0.00    -0.243 NA
ATOM     13  C   UNL     1     115.141 156.423 108.703  1.00  0.00     0.323 C 
ATOM     14  H   UNL     1     117.596 154.982 106.875  1.00  0.00     0.170 HD
ENDROOT
BRANCH  13  15
ATOM     15  O   UNL     1     115.161 157.723 108.127  1.00  0.00    -0.364 OA
ATOM     16  H   UNL     1     115.654 157.633 107.295  1.00  0.00     0.213 HD
ENDBRANCH  13  15
BRANCH  11  17
ATOM     17  C   UNL     1     117.202 156.631 111.791  1.00  0.00     0.019 A 
ATOM     18  C   UNL     1     117.596 155.377 112.276  1.00  0.00     0.012 A 
ATOM     19  C   UNL     1     117.165 157.739 112.644  1.00  0.00     0.050 A 
ATOM     20  C   UNL     1     117.961 155.235 113.614  1.00  0.00     0.001 A 
ATOM     21  C   UNL     1     117.534 157.588 113.983  1.00  0.00     0.021 A 
ATOM     22  C   UNL     1     117.930 156.338 114.467  1.00  0.00     0.002 A 
ATOM     23  Cl  UNL     1     116.735 159.319 112.096  1.00  0.00    -0.084 Cl
ENDBRANCH  11  17
TORSDOF 2
ENDMDL
MODEL 6
REMARK VINA RESULT:    -7.041      3.416      4.925
REMARK INTER + INTRA:          -7.974
REMARK INTER:                  -7.519
REMARK INTRA:                  -0.455
REMARK UNBOUND:                -0.316
REMARK SMILES O=C1Nc2ccc(Cl)cc2C(c2ccccc2Cl)=NC1O
REMARK SMILES IDX 1 1 2 2 3 3 4 4 5 5 6 6 7 7 8 8 9 9 10 10 11 11 19 12 20 13
REMARK SMILES IDX 21 15 12 17 13 18 17 19 14 20 16 21 15 22 18 23
REMARK H PARENT 3 14 21 16
ROOT
ATOM      1  O   UNL     1     112.335 155.218 114.779  1.00  0.00    -0.269 OA
ATOM      2  C   UNL     1     113.490 155.594 114.992  1.00  0.00     0.276 C 
ATOM      3  N   UNL     1     113.701 156.614 115.886  1.00  0.00    -0.321 N 
ATOM      4  C   UNL     1     114.926 157.185 116.259  1.00  0.00     0.050 A 
ATOM      5  C   UNL     1     114.955 157.796 117.522  1.00  0.00     0.028 A 
ATOM      6  C   UNL     1     116.136 158.346 118.023  1.00  0.00     0.023 A 
ATOM      7  C   UNL     1     117.294 158.301 117.257  1.00  0.00     0.041 A 
ATOM      8  Cl  UNL     1     118.753 158.972 117.874  1.00  0.00    -0.084 Cl
ATOM      9  C   UNL     1     117.275 157.740 115.983  1.00  0.00     0.033 A 
ATOM     10  C   UNL     1     116.086 157.198 115.465  1.00  0.00     0.026 A 
ATOM     11  C   UNL     1     116.063 156.800 114.025  1.00  0.00     0.079 C 
ATOM     12  N   UNL     1     115.431 155.803 113.513  1.00  0.00    -0.243 NA
ATOM     13  C   UNL     1     114.721 154.881 114.388  1.00  0.00     0.323 C 
ATOM     14  H   UNL     1     112.860 156.882 116.381  1.00  0.00     0.170 HD
ENDROOT
BRANCH  13  15
ATOM     15  O   UNL     1     115.511 154.241 115.381  1.00  0.00    -0.364 OA
ATOM     16  H   UNL     1     115.013 153.450 115.642  1.00  0.00     0.213 HD
ENDBRANCH  13  15
BRANCH  11  17
ATOM     17  C   UNL     1     116.786 157.676 113.065  1.00  0.00     0.019 A 
ATOM     18  C   UNL     1     117.835 157.111 112.327  1.00  0.00     0.012 A 
ATOM     19  C   UNL     1     116.459 159.027 112.908  1.00  0.00     0.050 A 
ATOM     20  C   UNL     1     118.550 157.898 111.425  1.00  0.00     0.001 A 
ATOM     21  C   UNL     1     117.181 159.808 112.001  1.00  0.00     0.021 A 
ATOM     22  C   UNL     1     118.224 159.244 111.263  1.00  0.00     0.002 A 
ATOM     23  Cl  UNL     1     115.148 159.769 113.751  1.00  0.00    -0.084 Cl
ENDBRANCH  11  17
TORSDOF 2
ENDMDL
MODEL 7
REMARK VINA RESULT:    -6.836      2.935      4.787
REMARK INTER + INTRA:          -7.751
REMARK INTER:                  -7.609
REMARK INTRA:                  -0.141
REMARK UNBOUND:                -0.316
REMARK SMILES O=C1Nc2ccc(Cl)cc2C(c2ccccc2Cl)=NC1O
REMARK SMILES IDX 1 1 2 2 3 3 4 4 5 5 6 6 7 7 8 8 9 9 10 10 11 11 19 12 20 13
REMARK SMILES IDX 21 15 12 17 13 18 17 19 14 20 16 21 15 22 18 23
REMARK H PARENT 3 14 21 16
ROOT
ATOM      1  O   UNL     1     121.155 156.792 106.853  1.00  0.00    -0.269 OA
ATOM      2  C   UNL     1     120.318 157.395 107.530  1.00  0.00     0.276 C 
ATOM      3  N   UNL     1     120.725 158.463 108.290  1.00  0.00    -0.321 N 
ATOM      4  C   UNL     1     119.937 159.267 109.125  1.00  0.00     0.050 A 
ATOM      5  C   UNL     1     120.421 160.564 109.358  1.00  0.00     0.028 A 
ATOM      6  C   UNL     1     119.691 161.473 110.126  1.00  0.00     0.023 A 
ATOM      7  C   UNL     1     118.477 161.086 110.680  1.00  0.00     0.041 A 
ATOM      8  Cl  UNL     1     117.572 162.205 111.621  1.00  0.00    -0.084 Cl
ATOM      9  C   UNL     1     118.002 159.790 110.498  1.00  0.00     0.033 A 
ATOM     10  C   UNL     1     118.738 158.864 109.739  1.00  0.00     0.026 A 
ATOM     11  C   UNL     1     118.295 157.437 109.747  1.00  0.00     0.079 C 
ATOM     12  N   UNL     1     118.355 156.608 108.765  1.00  0.00    -0.243 NA
ATOM     13  C   UNL     1     118.808 157.074 107.463  1.00  0.00     0.323 C 
ATOM     14  H   UNL     1     121.687 158.724 108.117  1.00  0.00     0.170 HD
ENDROOT
BRANCH  13  15
ATOM     15  O   UNL     1     118.058 158.139 106.895  1.00  0.00    -0.364 OA
ATOM     16  H   UNL     1     118.712 158.802 106.620  1.00  0.00     0.213 HD
ENDBRANCH  13  15
BRANCH  11  17
ATOM     17  C   UNL     1     117.795 156.887 111.035  1.00  0.00     0.019 A 
ATOM     18  C   UNL     1     118.588 157.071 112.177  1.00  0.00     0.012 A 
ATOM     19  C   UNL     1     116.587 156.187 111.120  1.00  0.00     0.050 A 
ATOM     20  C   UNL     1     118.167 156.560 113.403  1.00  0.00     0.001 A 
ATOM     21  C   UNL     1     116.172 155.679 112.354  1.00  0.00     0.021 A 
ATOM     22  C   UNL     1     116.961 155.865 113.492  1.00  0.00     0.002 A 
ATOM     23  Cl  UNL     1     115.543 155.968 109.762  1.00  0.00    -0.084 Cl
ENDBRANCH  11  17
TORSDOF 2
ENDMDL
MODEL 8
REMARK VINA RESULT:    -6.805      4.118      5.486
REMARK INTER + INTRA:          -7.718
REMARK INTER:                  -7.131
REMARK INTRA:                  -0.586
REMARK UNBOUND:                -0.316
REMARK SMILES O=C1Nc2ccc(Cl)cc2C(c2ccccc2Cl)=NC1O
REMARK SMILES IDX 1 1 2 2 3 3 4 4 5 5 6 6 7 7 8 8 9 9 10 10 11 11 19 12 20 13
REMARK SMILES IDX 21 15 12 17 13 18 17 19 14 20 16 21 15 22 18 23
REMARK H PARENT 3 14 21 16
ROOT
ATOM      1  O   UNL     1     116.865 156.956 119.299  1.00  0.00    -0.269 OA
ATOM      2  C   UNL     1     116.415 157.564 118.324  1.00  0.00     0.276 C 
ATOM      3  N   UNL     1     115.088 157.422 118.009  1.00  0.00    -0.321 N 
ATOM      4  C   UNL     1     114.393 158.018 116.947  1.00  0.00     0.050 A 
ATOM      5  C   UNL     1     113.009 158.167 117.130  1.00  0.00     0.028 A 
ATOM      6  C   UNL     1     112.223 158.800 116.165  1.00  0.00     0.023 A 
ATOM      7  C   UNL     1     112.815 159.276 115.001  1.00  0.00     0.041 A 
ATOM      8  Cl  UNL     1     111.853 160.063 113.813  1.00  0.00    -0.084 Cl
ATOM      9  C   UNL     1     114.179 159.097 114.781  1.00  0.00     0.033 A 
ATOM     10  C   UNL     1     114.973 158.448 115.741  1.00  0.00     0.026 A 
ATOM     11  C   UNL     1     116.377 158.096 115.370  1.00  0.00     0.079 C 
ATOM     12  N   UNL     1     117.402 158.102 116.148  1.00  0.00    -0.243 NA
ATOM     13  C   UNL     1     117.259 158.577 117.516  1.00  0.00     0.323 C 
ATOM     14  H   UNL     1     114.572 156.902 118.706  1.00  0.00     0.170 HD
ENDROOT
BRANCH  13  15
ATOM     15  O   UNL     1     116.780 159.908 117.660  1.00  0.00    -0.364 OA
ATOM     16  H   UNL     1     116.219 160.069 116.884  1.00  0.00     0.213 HD
ENDBRANCH  13  15
BRANCH  11  17
ATOM     17  C   UNL     1     116.617 157.624 113.980  1.00  0.00     0.019 A 
ATOM     18  C   UNL     1     117.127 158.545 113.055  1.00  0.00     0.012 A 
ATOM     19  C   UNL     1     116.326 156.313 113.585  1.00  0.00     0.050 A 
ATOM     20  C   UNL     1     117.353 158.151 111.737  1.00  0.00     0.001 A 
ATOM     21  C   UNL     1     116.557 155.928 112.262  1.00  0.00     0.021 A 
ATOM     22  C   UNL     1     117.069 156.845 111.341  1.00  0.00     0.002 A 
ATOM     23  Cl  UNL     1     115.742 155.120 114.687  1.00  0.00    -0.084 Cl
ENDBRANCH  11  17
TORSDOF 2
ENDMDL
MODEL 9
REMARK VINA RESULT:    -6.109      4.581      7.744
REMARK INTER + INTRA:          -6.960
REMARK INTER:                  -6.379
REMARK INTRA:                  -0.581
REMARK UNBOUND:                -0.316
REMARK SMILES O=C1Nc2ccc(Cl)cc2C(c2ccccc2Cl)=NC1O
REMARK SMILES IDX 1 1 2 2 3 3 4 4 5 5 6 6 7 7 8 8 9 9 10 10 11 11 19 12 20 13
REMARK SMILES IDX 21 15 12 17 13 18 17 19 14 20 16 21 15 22 18 23
REMARK H PARENT 3 14 21 16
ROOT
ATOM      1  O   UNL     1     117.382 155.586 111.795  1.00  0.00    -0.269 OA
ATOM      2  C   UNL     1     117.281 155.716 113.018  1.00  0.00     0.276 C 
ATOM      3  N   UNL     1     116.826 154.657 113.762  1.00  0.00    -0.321 N 
ATOM      4  C   UNL     1     116.636 154.607 115.150  1.00  0.00     0.050 A 
ATOM      5  C   UNL     1     116.691 153.328 115.728  1.00  0.00     0.028 A 
ATOM      6  C   UNL     1     116.575 153.162 117.109  1.00  0.00     0.023 A 
ATOM      7  C   UNL     1     116.388 154.273 117.922  1.00  0.00     0.041 A 
ATOM      8  Cl  UNL     1     116.251 154.073 119.625  1.00  0.00    -0.084 Cl
ATOM      9  C   UNL     1     116.285 155.545 117.364  1.00  0.00     0.033 A 
ATOM     10  C   UNL     1     116.386 155.719 115.973  1.00  0.00     0.026 A 
ATOM     11  C   UNL     1     116.062 157.064 115.407  1.00  0.00     0.079 C 
ATOM     12  N   UNL     1     116.628 157.630 114.399  1.00  0.00    -0.243 NA
ATOM     13  C   UNL     1     117.764 156.983 113.760  1.00  0.00     0.323 C 
ATOM     14  H   UNL     1     116.725 153.809 113.219  1.00  0.00     0.170 HD
ENDROOT
BRANCH  13  15
ATOM     15  O   UNL     1     118.877 156.718 114.604  1.00  0.00    -0.364 OA
ATOM     16  H   UNL     1     119.342 155.969 114.196  1.00  0.00     0.213 HD
ENDBRANCH  13  15
BRANCH  11  17
ATOM     17  C   UNL     1     114.928 157.805 116.020  1.00  0.00     0.019 A 
ATOM     18  C   UNL     1     113.634 157.506 115.571  1.00  0.00     0.012 A 
ATOM     19  C   UNL     1     115.128 158.787 116.995  1.00  0.00     0.050 A 
ATOM     20  C   UNL     1     112.540 158.186 116.106  1.00  0.00     0.001 A 
ATOM     21  C   UNL     1     114.026 159.463 117.526  1.00  0.00     0.021 A 
ATOM     22  C   UNL     1     112.736 159.163 117.082  1.00  0.00     0.002 A 
ATOM     23  Cl  UNL     1     116.690 159.168 117.623  1.00  0.00    -0.084 Cl
ENDBRANCH  11  17
TORSDOF 2
ENDMDL
