MODEL 1
REMARK VINA RESULT:   -10.754      0.000      0.000
REMARK INTER + INTRA:         -11.156
REMARK INTER:                 -11.383
REMARK INTRA:                   0.227
REMARK UNBOUND:                 0.227
REMARK SMILES Cc1ncc2n1-c1ccc(Cl)cc1C(c1ccccc1F)=NC2
REMARK SMILES IDX 1 1 2 2 3 3 4 4 5 5 6 6 7 7 8 8 9 9 10 10 11 11 12 12 13 13
REMARK SMILES IDX 14 14 22 15 23 16 15 17 16 18 20 19 17 20 19 21 18 22 21 23
REMARK H PARENT
ROOT
ATOM      1  C   UNL     1     116.678 161.331 111.761  1.00  0.00     0.088 C 
ATOM      2  C   UNL     1     116.870 159.993 112.382  1.00  0.00     0.110 A 
ATOM      3  N   UNL     1     116.234 159.607 113.473  1.00  0.00    -0.241 NA
ATOM      4  C   UNL     1     116.537 158.288 113.635  1.00  0.00     0.137 A 
ATOM      5  C   UNL     1     117.393 157.859 112.650  1.00  0.00     0.064 A 
ATOM      6  N   UNL     1     117.636 158.958 111.853  1.00  0.00    -0.298 N 
ATOM      7  C   UNL     1     118.539 158.975 110.753  1.00  0.00     0.057 A 
ATOM      8  C   UNL     1     119.298 160.130 110.507  1.00  0.00     0.029 A 
ATOM      9  C   UNL     1     120.232 160.158 109.468  1.00  0.00     0.023 A 
ATOM     10  C   UNL     1     120.422 159.031 108.678  1.00  0.00     0.041 A 
ATOM     11  Cl  UNL     1     121.579 159.064 107.406  1.00  0.00    -0.084 Cl
ATOM     12  C   UNL     1     119.682 157.874 108.910  1.00  0.00     0.033 A 
ATOM     13  C   UNL     1     118.729 157.836 109.943  1.00  0.00     0.026 A 
ATOM     14  C   UNL     1     117.901 156.592 110.063  1.00  0.00     0.077 C 
ATOM     15  N   UNL     1     117.573 156.006 111.163  1.00  0.00    -0.278 NA
ATOM     16  C   UNL     1     118.034 156.549 112.428  1.00  0.00     0.198 C 
ENDROOT
BRANCH  14  17
ATOM     17  C   UNL     1     117.382 155.992 108.808  1.00  0.00     0.036 A 
ATOM     18  C   UNL     1     118.274 155.618 107.796  1.00  0.00     0.013 A 
ATOM     19  C   UNL     1     116.010 155.816 108.633  1.00  0.00     0.132 A 
ATOM     20  C   UNL     1     117.780 155.061 106.615  1.00  0.00     0.001 A 
ATOM     21  C   UNL     1     115.519 155.259 107.456  1.00  0.00     0.040 A 
ATOM     22  C   UNL     1     116.405 154.881 106.445  1.00  0.00     0.003 A 
ATOM     23  F   UNL     1     115.144 156.132 109.607  1.00  0.00    -0.206 F 
ENDBRANCH  14  17
TORSDOF 1
ENDMDL
MODEL 2
REMARK VINA RESULT:   -10.098      2.944      6.221
REMARK INTER + INTRA:         -10.462
REMARK INTER:                 -11.317
REMARK INTRA:                   0.855
REMARK UNBOUND:                 0.227
REMARK SMILES Cc1ncc2n1-c1ccc(Cl)cc1C(c1ccccc1F)=NC2
REMARK SMILES IDX 1 1 2 2 3 3 4 4 5 5 6 6 7 7 8 8 9 9 10 10 11 11 12 12 13 13
REMARK SMILES IDX 14 14 22 15 23 16 15 17 16 18 20 19 17 20 19 21 18 22 21 23
REMARK H PARENT
ROOT
ATOM      1  C   UNL     1     116.678 155.962 107.160  1.00  0.00     0.088 C 
ATOM      2  C   UNL     1     117.898 156.810 107.209  1.00  0.00     0.110 A 
ATOM      3  N   UNL     1     118.502 157.267 106.127  1.00  0.00    -0.241 NA
ATOM      4  C   UNL     1     119.463 158.127 106.569  1.00  0.00     0.137 A 
ATOM      5  C   UNL     1     119.474 158.181 107.942  1.00  0.00     0.064 A 
ATOM      6  N   UNL     1     118.488 157.315 108.365  1.00  0.00    -0.298 N 
ATOM      7  C   UNL     1     118.213 157.006 109.726  1.00  0.00     0.057 A 
ATOM      8  C   UNL     1     117.836 155.698 110.071  1.00  0.00     0.029 A 
ATOM      9  C   UNL     1     117.612 155.352 111.405  1.00  0.00     0.023 A 
ATOM     10  C   UNL     1     117.773 156.306 112.404  1.00  0.00     0.041 A 
ATOM     11  Cl  UNL     1     117.506 155.874 114.047  1.00  0.00    -0.084 Cl
ATOM     12  C   UNL     1     118.151 157.607 112.083  1.00  0.00     0.033 A 
ATOM     13  C   UNL     1     118.367 157.973 110.742  1.00  0.00     0.026 A 
ATOM     14  C   UNL     1     118.670 159.415 110.469  1.00  0.00     0.077 C 
ATOM     15  N   UNL     1     119.545 159.859 109.633  1.00  0.00    -0.278 NA
ATOM     16  C   UNL     1     120.348 158.919 108.873  1.00  0.00     0.198 C 
ENDROOT
BRANCH  14  17
ATOM     17  C   UNL     1     117.871 160.432 111.199  1.00  0.00     0.036 A 
ATOM     18  C   UNL     1     116.839 160.023 112.053  1.00  0.00     0.013 A 
ATOM     19  C   UNL     1     118.139 161.789 111.025  1.00  0.00     0.132 A 
ATOM     20  C   UNL     1     116.087 160.983 112.732  1.00  0.00     0.001 A 
ATOM     21  C   UNL     1     117.389 162.745 111.704  1.00  0.00     0.040 A 
ATOM     22  C   UNL     1     116.362 162.342 112.559  1.00  0.00     0.003 A 
ATOM     23  F   UNL     1     119.148 162.198 110.242  1.00  0.00    -0.206 F 
ENDBRANCH  14  17
TORSDOF 1
ENDMDL
MODEL 3
REMARK VINA RESULT:    -9.710      2.377      3.682
REMARK INTER + INTRA:         -10.051
REMARK INTER:                  -9.539
REMARK INTRA:                  -0.512
REMARK UNBOUND:                 0.227
REMARK SMILES Cc1ncc2n1-c1ccc(Cl)cc1C(c1ccccc1F)=NC2
REMARK SMILES IDX 1 1 2 2 3 3 4 4 5 5 6 6 7 7 8 8 9 9 10 10 11 11 12 12 13 13
REMARK SMILES IDX 14 14 22 15 23 16 15 17 16 18 20 19 17 20 19 21 18 22 21 23
REMARK H PARENT
ROOT
ATOM      1  C   UNL     1     113.367 158.651 114.646  1.00  0.00     0.088 C 
ATOM      2  C   UNL     1     114.574 157.805 114.843  1.00  0.00     0.110 A 
ATOM      3  N   UNL     1     114.585 156.735 115.616  1.00  0.00    -0.241 NA
ATOM      4  C   UNL     1     115.795 156.140 115.415  1.00  0.00     0.137 A 
ATOM      5  C   UNL     1     116.554 156.865 114.528  1.00  0.00     0.064 A 
ATOM      6  N   UNL     1     115.787 157.956 114.175  1.00  0.00    -0.298 N 
ATOM      7  C   UNL     1     116.226 159.014 113.331  1.00  0.00     0.057 A 
ATOM      8  C   UNL     1     115.815 160.328 113.607  1.00  0.00     0.029 A 
ATOM      9  C   UNL     1     116.273 161.393 112.828  1.00  0.00     0.023 A 
ATOM     10  C   UNL     1     117.152 161.155 111.778  1.00  0.00     0.041 A 
ATOM     11  Cl  UNL     1     117.722 162.470 110.827  1.00  0.00    -0.084 Cl
ATOM     12  C   UNL     1     117.574 159.860 111.491  1.00  0.00     0.033 A 
ATOM     13  C   UNL     1     117.110 158.776 112.258  1.00  0.00     0.026 A 
ATOM     14  C   UNL     1     117.529 157.403 111.823  1.00  0.00     0.077 C 
ATOM     15  N   UNL     1     117.890 156.441 112.601  1.00  0.00    -0.278 NA
ATOM     16  C   UNL     1     117.929 156.658 114.036  1.00  0.00     0.198 C 
ENDROOT
BRANCH  14  17
ATOM     17  C   UNL     1     117.495 157.107 110.368  1.00  0.00     0.036 A 
ATOM     18  C   UNL     1     116.326 156.601 109.789  1.00  0.00     0.013 A 
ATOM     19  C   UNL     1     118.629 157.320 109.586  1.00  0.00     0.132 A 
ATOM     20  C   UNL     1     116.301 156.318 108.422  1.00  0.00     0.001 A 
ATOM     21  C   UNL     1     118.604 157.039 108.223  1.00  0.00     0.040 A 
ATOM     22  C   UNL     1     117.438 156.537 107.640  1.00  0.00     0.003 A 
ATOM     23  F   UNL     1     119.745 157.841 110.115  1.00  0.00    -0.206 F 
ENDBRANCH  14  17
TORSDOF 1
ENDMDL
MODEL 4
REMARK VINA RESULT:    -8.556      2.320      4.708
REMARK INTER + INTRA:          -8.829
REMARK INTER:                  -9.665
REMARK INTRA:                   0.836
REMARK UNBOUND:                 0.227
REMARK SMILES Cc1ncc2n1-c1ccc(Cl)cc1C(c1ccccc1F)=NC2
REMARK SMILES IDX 1 1 2 2 3 3 4 4 5 5 6 6 7 7 8 8 9 9 10 10 11 11 12 12 13 13
REMARK SMILES IDX 14 14 22 15 23 16 15 17 16 18 20 19 17 20 19 21 18 22 21 23
REMARK H PARENT
ROOT
ATOM      1  C   UNL     1     117.823 154.894 112.860  1.00  0.00     0.088 C 
ATOM      2  C   UNL     1     117.436 156.329 112.864  1.00  0.00     0.110 A 
ATOM      3  N   UNL     1     117.260 157.025 113.972  1.00  0.00    -0.241 NA
ATOM      4  C   UNL     1     117.083 158.318 113.578  1.00  0.00     0.137 A 
ATOM      5  C   UNL     1     117.122 158.420 112.209  1.00  0.00     0.064 A 
ATOM      6  N   UNL     1     117.322 157.140 111.737  1.00  0.00    -0.298 N 
ATOM      7  C   UNL     1     117.346 156.780 110.361  1.00  0.00     0.057 A 
ATOM      8  C   UNL     1     116.794 155.552 109.963  1.00  0.00     0.029 A 
ATOM      9  C   UNL     1     116.754 155.195 108.613  1.00  0.00     0.023 A 
ATOM     10  C   UNL     1     117.254 156.066 107.652  1.00  0.00     0.041 A 
ATOM     11  Cl  UNL     1     117.195 155.629 105.990  1.00  0.00    -0.084 Cl
ATOM     12  C   UNL     1     117.801 157.291 108.026  1.00  0.00     0.033 A 
ATOM     13  C   UNL     1     117.859 157.657 109.383  1.00  0.00     0.026 A 
ATOM     14  C   UNL     1     118.555 158.944 109.713  1.00  0.00     0.077 C 
ATOM     15  N   UNL     1     118.164 159.813 110.580  1.00  0.00    -0.278 NA
ATOM     16  C   UNL     1     116.937 159.583 111.320  1.00  0.00     0.198 C 
ENDROOT
BRANCH  14  17
ATOM     17  C   UNL     1     119.828 159.234 109.005  1.00  0.00     0.036 A 
ATOM     18  C   UNL     1     120.365 158.287 108.126  1.00  0.00     0.013 A 
ATOM     19  C   UNL     1     120.491 160.440 109.226  1.00  0.00     0.132 A 
ATOM     20  C   UNL     1     121.565 158.562 107.468  1.00  0.00     0.001 A 
ATOM     21  C   UNL     1     121.686 160.714 108.568  1.00  0.00     0.040 A 
ATOM     22  C   UNL     1     122.224 159.774 107.687  1.00  0.00     0.003 A 
ATOM     23  F   UNL     1     119.971 161.376 110.034  1.00  0.00    -0.206 F 
ENDBRANCH  14  17
TORSDOF 1
ENDMDL
MODEL 5
REMARK VINA RESULT:    -8.298      2.998      5.915
REMARK INTER + INTRA:          -8.556
REMARK INTER:                  -8.966
REMARK INTRA:                   0.410
REMARK UNBOUND:                 0.227
REMARK SMILES Cc1ncc2n1-c1ccc(Cl)cc1C(c1ccccc1F)=NC2
REMARK SMILES IDX 1 1 2 2 3 3 4 4 5 5 6 6 7 7 8 8 9 9 10 10 11 11 12 12 13 13
REMARK SMILES IDX 14 14 22 15 23 16 15 17 16 18 20 19 17 20 19 21 18 22 21 23
REMARK H PARENT
ROOT
ATOM      1  C   UNL     1     114.576 155.927 108.636  1.00  0.00     0.088 C 
ATOM      2  C   UNL     1     115.909 155.740 108.005  1.00  0.00     0.110 A 
ATOM      3  N   UNL     1     116.066 155.361 106.750  1.00  0.00    -0.241 NA
ATOM      4  C   UNL     1     117.400 155.463 106.492  1.00  0.00     0.137 A 
ATOM      5  C   UNL     1     118.082 155.883 107.608  1.00  0.00     0.064 A 
ATOM      6  N   UNL     1     117.134 156.038 108.598  1.00  0.00    -0.298 N 
ATOM      7  C   UNL     1     117.422 156.386 109.947  1.00  0.00     0.057 A 
ATOM      8  C   UNL     1     116.667 155.810 110.981  1.00  0.00     0.029 A 
ATOM      9  C   UNL     1     116.961 156.091 112.316  1.00  0.00     0.023 A 
ATOM     10  C   UNL     1     118.019 156.938 112.629  1.00  0.00     0.041 A 
ATOM     11  Cl  UNL     1     118.386 157.274 114.275  1.00  0.00    -0.084 Cl
ATOM     12  C   UNL     1     118.782 157.515 111.618  1.00  0.00     0.033 A 
ATOM     13  C   UNL     1     118.488 157.251 110.268  1.00  0.00     0.026 A 
ATOM     14  C   UNL     1     119.289 157.990 109.238  1.00  0.00     0.077 C 
ATOM     15  N   UNL     1     119.754 157.494 108.143  1.00  0.00    -0.278 NA
ATOM     16  C   UNL     1     119.524 156.094 107.839  1.00  0.00     0.198 C 
ENDROOT
BRANCH  14  17
ATOM     17  C   UNL     1     119.547 159.433 109.478  1.00  0.00     0.036 A 
ATOM     18  C   UNL     1     118.695 160.161 110.317  1.00  0.00     0.013 A 
ATOM     19  C   UNL     1     120.626 160.062 108.859  1.00  0.00     0.132 A 
ATOM     20  C   UNL     1     118.938 161.518 110.535  1.00  0.00     0.001 A 
ATOM     21  C   UNL     1     120.869 161.416 109.078  1.00  0.00     0.040 A 
ATOM     22  C   UNL     1     120.024 162.144 109.916  1.00  0.00     0.003 A 
ATOM     23  F   UNL     1     121.476 159.373 108.084  1.00  0.00    -0.206 F 
ENDBRANCH  14  17
TORSDOF 1
ENDMDL
MODEL 6
REMARK VINA RESULT:    -6.965      4.676      7.912
REMARK INTER + INTRA:          -7.146
REMARK INTER:                  -6.551
REMARK INTRA:                  -0.595
REMARK UNBOUND:                 0.227
REMARK SMILES Cc1ncc2n1-c1ccc(Cl)cc1C(c1ccccc1F)=NC2
REMARK SMILES IDX 1 1 2 2 3 3 4 4 5 5 6 6 7 7 8 8 9 9 10 10 11 11 12 12 13 13
REMARK SMILES IDX 14 14 22 15 23 16 15 17 16 18 20 19 17 20 19 21 18 22 21 23
REMARK H PARENT
ROOT
ATOM      1  C   UNL     1     116.606 157.794 114.478  1.00  0.00     0.088 C 
ATOM      2  C   UNL     1     115.328 158.550 114.406  1.00  0.00     0.110 A 
ATOM      3  N   UNL     1     114.220 158.149 115.001  1.00  0.00    -0.241 NA
ATOM      4  C   UNL     1     113.325 159.167 114.852  1.00  0.00     0.137 A 
ATOM      5  C   UNL     1     113.876 160.198 114.131  1.00  0.00     0.064 A 
ATOM      6  N   UNL     1     115.158 159.799 113.814  1.00  0.00    -0.298 N 
ATOM      7  C   UNL     1     116.058 160.542 113.000  1.00  0.00     0.057 A 
ATOM      8  C   UNL     1     116.917 159.856 112.125  1.00  0.00     0.029 A 
ATOM      9  C   UNL     1     117.773 160.560 111.276  1.00  0.00     0.023 A 
ATOM     10  C   UNL     1     117.770 161.950 111.285  1.00  0.00     0.041 A 
ATOM     11  Cl  UNL     1     118.818 162.814 110.230  1.00  0.00    -0.084 Cl
ATOM     12  C   UNL     1     116.922 162.647 112.142  1.00  0.00     0.033 A 
ATOM     13  C   UNL     1     116.064 161.952 113.013  1.00  0.00     0.026 A 
ATOM     14  C   UNL     1     115.259 162.771 113.976  1.00  0.00     0.077 C 
ATOM     15  N   UNL     1     114.025 162.571 114.291  1.00  0.00    -0.278 NA
ATOM     16  C   UNL     1     113.298 161.477 113.675  1.00  0.00     0.198 C 
ENDROOT
BRANCH  14  17
ATOM     17  C   UNL     1     115.947 163.897 114.657  1.00  0.00     0.036 A 
ATOM     18  C   UNL     1     116.711 163.653 115.804  1.00  0.00     0.013 A 
ATOM     19  C   UNL     1     115.819 165.195 114.164  1.00  0.00     0.132 A 
ATOM     20  C   UNL     1     117.350 164.716 116.445  1.00  0.00     0.001 A 
ATOM     21  C   UNL     1     116.458 166.254 114.802  1.00  0.00     0.040 A 
ATOM     22  C   UNL     1     117.225 166.014 115.944  1.00  0.00     0.003 A 
ATOM     23  F   UNL     1     115.124 165.443 113.045  1.00  0.00    -0.206 F 
ENDBRANCH  14  17
TORSDOF 1
ENDMDL
MODEL 7
REMARK VINA RESULT:    -6.883      4.956      7.196
REMARK INTER + INTRA:          -7.059
REMARK INTER:                  -6.427
REMARK INTRA:                  -0.631
REMARK UNBOUND:                 0.227
REMARK SMILES Cc1ncc2n1-c1ccc(Cl)cc1C(c1ccccc1F)=NC2
REMARK SMILES IDX 1 1 2 2 3 3 4 4 5 5 6 6 7 7 8 8 9 9 10 10 11 11 12 12 13 13
REMARK SMILES IDX 14 14 22 15 23 16 15 17 16 18 20 19 17 20 19 21 18 22 21 23
REMARK H PARENT
ROOT
ATOM      1  C   UNL     1     116.080 165.133 110.781  1.00  0.00     0.088 C 
ATOM      2  C   UNL     1     116.124 165.120 112.267  1.00  0.00     0.110 A 
ATOM      3  N   UNL     1     116.017 166.212 113.001  1.00  0.00    -0.241 NA
ATOM      4  C   UNL     1     115.934 165.787 114.294  1.00  0.00     0.137 A 
ATOM      5  C   UNL     1     116.019 164.418 114.364  1.00  0.00     0.064 A 
ATOM      6  N   UNL     1     116.170 163.979 113.065  1.00  0.00    -0.298 N 
ATOM      7  C   UNL     1     116.376 162.623 112.689  1.00  0.00     0.057 A 
ATOM      8  C   UNL     1     117.234 162.331 111.617  1.00  0.00     0.029 A 
ATOM      9  C   UNL     1     117.499 161.007 111.259  1.00  0.00     0.023 A 
ATOM     10  C   UNL     1     116.918 159.967 111.975  1.00  0.00     0.041 A 
ATOM     11  Cl  UNL     1     117.254 158.338 111.539  1.00  0.00    -0.084 Cl
ATOM     12  C   UNL     1     116.068 160.236 113.045  1.00  0.00     0.033 A 
ATOM     13  C   UNL     1     115.783 161.565 113.408  1.00  0.00     0.026 A 
ATOM     14  C   UNL     1     114.779 161.772 114.503  1.00  0.00     0.077 C 
ATOM     15  N   UNL     1     114.865 162.639 115.452  1.00  0.00    -0.278 NA
ATOM     16  C   UNL     1     116.026 163.507 115.525  1.00  0.00     0.198 C 
ENDROOT
BRANCH  14  17
ATOM     17  C   UNL     1     113.557 160.929 114.479  1.00  0.00     0.036 A 
ATOM     18  C   UNL     1     112.521 161.232 113.588  1.00  0.00     0.013 A 
ATOM     19  C   UNL     1     113.438 159.847 115.350  1.00  0.00     0.132 A 
ATOM     20  C   UNL     1     111.371 160.440 113.575  1.00  0.00     0.001 A 
ATOM     21  C   UNL     1     112.292 159.057 115.335  1.00  0.00     0.040 A 
ATOM     22  C   UNL     1     111.257 159.354 114.446  1.00  0.00     0.003 A 
ATOM     23  F   UNL     1     114.436 159.518 116.182  1.00  0.00    -0.206 F 
ENDBRANCH  14  17
TORSDOF 1
ENDMDL
