MODEL 1
REMARK VINA RESULT:    -7.660      0.000      0.000
REMARK INTER + INTRA:          -7.776
REMARK INTER:                  -8.108
REMARK INTRA:                   0.332
REMARK UNBOUND:                 0.332
REMARK SMILES Cc1nnc2n1-c1ccc(Cl)cc1C(c1ccccc1)=NC2
REMARK SMILES IDX 1 1 2 2 3 3 4 4 5 5 6 6 7 7 8 8 9 9 10 10 11 11 12 12 13 13
REMARK SMILES IDX 14 14 21 15 22 16 15 17 16 18 20 19 17 20 19 21 18 22
REMARK H PARENT
ROOT
ATOM      1  C   UNL     1     141.818  95.625 130.759  1.00  0.00     0.090 C 
ATOM      2  C   UNL     1     142.890  96.365 131.464  1.00  0.00     0.134 A 
ATOM      3  N   UNL     1     144.174  96.090 131.354  1.00  0.00    -0.135 NA
ATOM      4  N   UNL     1     144.859  96.864 132.248  1.00  0.00    -0.133 NA
ATOM      5  C   UNL     1     143.984  97.607 132.892  1.00  0.00     0.159 A 
ATOM      6  N   UNL     1     142.717  97.365 132.409  1.00  0.00    -0.281 N 
ATOM      7  C   UNL     1     141.549  98.083 132.775  1.00  0.00     0.058 A 
ATOM      8  C   UNL     1     140.574  98.350 131.800  1.00  0.00     0.029 A 
ATOM      9  C   UNL     1     139.459  99.136 132.108  1.00  0.00     0.023 A 
ATOM     10  C   UNL     1     139.319  99.670 133.384  1.00  0.00     0.041 A 
ATOM     11  Cl  UNL     1     137.956 100.652 133.754  1.00  0.00    -0.084 Cl
ATOM     12  C   UNL     1     140.273  99.413 134.364  1.00  0.00     0.033 A 
ATOM     13  C   UNL     1     141.386  98.601 134.076  1.00  0.00     0.026 A 
ATOM     14  C   UNL     1     142.302  98.274 135.218  1.00  0.00     0.075 C 
ATOM     15  N   UNL     1     143.590  98.308 135.163  1.00  0.00    -0.276 NA
ATOM     16  C   UNL     1     144.266  98.637 133.917  1.00  0.00     0.220 C 
ENDROOT
BRANCH  14  17
ATOM     17  C   UNL     1     141.692  97.875 136.529  1.00  0.00     0.000 A 
ATOM     18  C   UNL     1     142.421  97.047 137.393  1.00  0.00     0.010 A 
ATOM     19  C   UNL     1     140.402  98.288 136.886  1.00  0.00     0.010 A 
ATOM     20  C   UNL     1     141.875  96.661 138.617  1.00  0.00     0.001 A 
ATOM     21  C   UNL     1     139.861  97.898 138.114  1.00  0.00     0.001 A 
ATOM     22  C   UNL     1     140.598  97.090 138.979  1.00  0.00     0.000 A 
ENDBRANCH  14  17
TORSDOF 1
ENDMDL
MODEL 2
REMARK VINA RESULT:    -7.620      3.337      5.074
REMARK INTER + INTRA:          -7.734
REMARK INTER:                  -7.325
REMARK INTRA:                  -0.409
REMARK UNBOUND:                 0.332
REMARK SMILES Cc1nnc2n1-c1ccc(Cl)cc1C(c1ccccc1)=NC2
REMARK SMILES IDX 1 1 2 2 3 3 4 4 5 5 6 6 7 7 8 8 9 9 10 10 11 11 12 12 13 13
REMARK SMILES IDX 14 14 21 15 22 16 15 17 16 18 20 19 17 20 19 21 18 22
REMARK H PARENT
ROOT
ATOM      1  C   UNL     1     139.117  97.687 133.988  1.00  0.00     0.090 C 
ATOM      2  C   UNL     1     140.450  98.287 133.745  1.00  0.00     0.134 A 
ATOM      3  N   UNL     1     140.754  99.010 132.686  1.00  0.00    -0.135 NA
ATOM      4  N   UNL     1     142.094  99.274 132.714  1.00  0.00    -0.133 NA
ATOM      5  C   UNL     1     142.593  98.713 133.795  1.00  0.00     0.159 A 
ATOM      6  N   UNL     1     141.589  98.104 134.515  1.00  0.00    -0.281 N 
ATOM      7  C   UNL     1     141.739  97.519 135.799  1.00  0.00     0.058 A 
ATOM      8  C   UNL     1     140.700  97.645 136.736  1.00  0.00     0.029 A 
ATOM      9  C   UNL     1     140.858  97.162 138.038  1.00  0.00     0.023 A 
ATOM     10  C   UNL     1     142.055  96.565 138.416  1.00  0.00     0.041 A 
ATOM     11  Cl  UNL     1     142.252  95.989 140.024  1.00  0.00    -0.084 Cl
ATOM     12  C   UNL     1     143.094  96.428 137.500  1.00  0.00     0.033 A 
ATOM     13  C   UNL     1     142.940  96.885 136.178  1.00  0.00     0.026 A 
ATOM     14  C   UNL     1     144.059  96.592 135.223  1.00  0.00     0.075 C 
ATOM     15  N   UNL     1     144.551  97.437 134.382  1.00  0.00    -0.276 NA
ATOM     16  C   UNL     1     143.993  98.777 134.272  1.00  0.00     0.220 C 
ENDROOT
BRANCH  14  17
ATOM     17  C   UNL     1     144.662  95.218 135.232  1.00  0.00     0.000 A 
ATOM     18  C   UNL     1     144.038  94.198 134.503  1.00  0.00     0.010 A 
ATOM     19  C   UNL     1     145.813  94.935 135.978  1.00  0.00     0.010 A 
ATOM     20  C   UNL     1     144.579  92.912 134.496  1.00  0.00     0.001 A 
ATOM     21  C   UNL     1     146.349  93.645 135.967  1.00  0.00     0.001 A 
ATOM     22  C   UNL     1     145.736  92.638 135.224  1.00  0.00     0.000 A 
ENDBRANCH  14  17
TORSDOF 1
ENDMDL
MODEL 3
REMARK VINA RESULT:    -7.325      3.242      4.765
REMARK INTER + INTRA:          -7.422
REMARK INTER:                  -7.080
REMARK INTRA:                  -0.341
REMARK UNBOUND:                 0.332
REMARK SMILES Cc1nnc2n1-c1ccc(Cl)cc1C(c1ccccc1)=NC2
REMARK SMILES IDX 1 1 2 2 3 3 4 4 5 5 6 6 7 7 8 8 9 9 10 10 11 11 12 12 13 13
REMARK SMILES IDX 14 14 21 15 22 16 15 17 16 18 20 19 17 20 19 21 18 22
REMARK H PARENT
ROOT
ATOM      1  C   UNL     1     143.550  99.082 132.663  1.00  0.00     0.090 C 
ATOM      2  C   UNL     1     142.252  98.740 133.290  1.00  0.00     0.134 A 
ATOM      3  N   UNL     1     141.172  99.491 133.211  1.00  0.00    -0.135 NA
ATOM      4  N   UNL     1     140.213  98.952 134.021  1.00  0.00    -0.133 NA
ATOM      5  C   UNL     1     140.717  97.876 134.584  1.00  0.00     0.159 A 
ATOM      6  N   UNL     1     141.999  97.664 134.127  1.00  0.00    -0.281 N 
ATOM      7  C   UNL     1     142.795  96.525 134.416  1.00  0.00     0.058 A 
ATOM      8  C   UNL     1     143.633  96.002 133.416  1.00  0.00     0.029 A 
ATOM      9  C   UNL     1     144.356  94.827 133.641  1.00  0.00     0.023 A 
ATOM     10  C   UNL     1     144.237  94.160 134.855  1.00  0.00     0.041 A 
ATOM     11  Cl  UNL     1     145.113  92.705 135.120  1.00  0.00    -0.084 Cl
ATOM     12  C   UNL     1     143.414  94.665 135.858  1.00  0.00     0.033 A 
ATOM     13  C   UNL     1     142.701  95.862 135.656  1.00  0.00     0.026 A 
ATOM     14  C   UNL     1     141.934  96.401 136.827  1.00  0.00     0.075 C 
ATOM     15  N   UNL     1     140.731  96.864 136.771  1.00  0.00    -0.276 NA
ATOM     16  C   UNL     1     140.029  96.936 135.498  1.00  0.00     0.220 C 
ENDROOT
BRANCH  14  17
ATOM     17  C   UNL     1     142.599  96.412 138.171  1.00  0.00     0.000 A 
ATOM     18  C   UNL     1     141.854  96.049 139.300  1.00  0.00     0.010 A 
ATOM     19  C   UNL     1     143.935  96.808 138.318  1.00  0.00     0.010 A 
ATOM     20  C   UNL     1     142.450  96.053 140.562  1.00  0.00     0.001 A 
ATOM     21  C   UNL     1     144.526  96.809 139.584  1.00  0.00     0.001 A 
ATOM     22  C   UNL     1     143.786  96.428 140.702  1.00  0.00     0.000 A 
ENDBRANCH  14  17
TORSDOF 1
ENDMDL
MODEL 4
REMARK VINA RESULT:    -7.316      3.151      6.002
REMARK INTER + INTRA:          -7.412
REMARK INTER:                  -6.920
REMARK INTRA:                  -0.492
REMARK UNBOUND:                 0.332
REMARK SMILES Cc1nnc2n1-c1ccc(Cl)cc1C(c1ccccc1)=NC2
REMARK SMILES IDX 1 1 2 2 3 3 4 4 5 5 6 6 7 7 8 8 9 9 10 10 11 11 12 12 13 13
REMARK SMILES IDX 14 14 21 15 22 16 15 17 16 18 20 19 17 20 19 21 18 22
REMARK H PARENT
ROOT
ATOM      1  C   UNL     1     141.870  95.324 137.059  1.00  0.00     0.090 C 
ATOM      2  C   UNL     1     141.487  96.688 136.628  1.00  0.00     0.134 A 
ATOM      3  N   UNL     1     141.037  97.623 137.441  1.00  0.00    -0.135 NA
ATOM      4  N   UNL     1     140.646  98.695 136.691  1.00  0.00    -0.133 NA
ATOM      5  C   UNL     1     140.865  98.406 135.427  1.00  0.00     0.159 A 
ATOM      6  N   UNL     1     141.439  97.157 135.324  1.00  0.00    -0.281 N 
ATOM      7  C   UNL     1     141.933  96.578 134.126  1.00  0.00     0.058 A 
ATOM      8  C   UNL     1     143.098  95.794 134.173  1.00  0.00     0.029 A 
ATOM      9  C   UNL     1     143.661  95.290 132.997  1.00  0.00     0.023 A 
ATOM     10  C   UNL     1     143.076  95.576 131.769  1.00  0.00     0.041 A 
ATOM     11  Cl  UNL     1     143.782  94.970 130.324  1.00  0.00    -0.084 Cl
ATOM     12  C   UNL     1     141.919  96.349 131.704  1.00  0.00     0.033 A 
ATOM     13  C   UNL     1     141.325  96.840 132.881  1.00  0.00     0.026 A 
ATOM     14  C   UNL     1     140.018  97.560 132.734  1.00  0.00     0.075 C 
ATOM     15  N   UNL     1     139.712  98.664 133.326  1.00  0.00    -0.276 NA
ATOM     16  C   UNL     1     140.646  99.284 134.255  1.00  0.00     0.220 C 
ENDROOT
BRANCH  14  17
ATOM     17  C   UNL     1     138.975  96.965 131.834  1.00  0.00     0.000 A 
ATOM     18  C   UNL     1     138.533  97.702 130.728  1.00  0.00     0.010 A 
ATOM     19  C   UNL     1     138.417  95.708 132.099  1.00  0.00     0.010 A 
ATOM     20  C   UNL     1     137.562  97.172 129.878  1.00  0.00     0.001 A 
ATOM     21  C   UNL     1     137.446  95.183 131.243  1.00  0.00     0.001 A 
ATOM     22  C   UNL     1     137.023  95.912 130.133  1.00  0.00     0.000 A 
ENDBRANCH  14  17
TORSDOF 1
ENDMDL
MODEL 5
REMARK VINA RESULT:    -7.004      3.103      4.436
REMARK INTER + INTRA:          -7.082
REMARK INTER:                  -6.654
REMARK INTRA:                  -0.428
REMARK UNBOUND:                 0.332
REMARK SMILES Cc1nnc2n1-c1ccc(Cl)cc1C(c1ccccc1)=NC2
REMARK SMILES IDX 1 1 2 2 3 3 4 4 5 5 6 6 7 7 8 8 9 9 10 10 11 11 12 12 13 13
REMARK SMILES IDX 14 14 21 15 22 16 15 17 16 18 20 19 17 20 19 21 18 22
REMARK H PARENT
ROOT
ATOM      1  C   UNL     1     140.810  99.825 132.087  1.00  0.00     0.090 C 
ATOM      2  C   UNL     1     140.156  98.548 132.455  1.00  0.00     0.134 A 
ATOM      3  N   UNL     1     138.855  98.343 132.408  1.00  0.00    -0.135 NA
ATOM      4  N   UNL     1     138.592  97.118 132.952  1.00  0.00    -0.133 NA
ATOM      5  C   UNL     1     139.737  96.586 133.323  1.00  0.00     0.159 A 
ATOM      6  N   UNL     1     140.774  97.431 132.995  1.00  0.00    -0.281 N 
ATOM      7  C   UNL     1     142.154  97.123 133.123  1.00  0.00     0.058 A 
ATOM      8  C   UNL     1     143.053  97.584 132.147  1.00  0.00     0.029 A 
ATOM      9  C   UNL     1     144.401  97.217 132.196  1.00  0.00     0.023 A 
ATOM     10  C   UNL     1     144.856  96.380 133.208  1.00  0.00     0.041 A 
ATOM     11  Cl  UNL     1     146.511  95.916 133.254  1.00  0.00    -0.084 Cl
ATOM     12  C   UNL     1     143.980  95.917 134.186  1.00  0.00     0.033 A 
ATOM     13  C   UNL     1     142.626  96.300 134.166  1.00  0.00     0.026 A 
ATOM     14  C   UNL     1     141.778  95.857 135.320  1.00  0.00     0.075 C 
ATOM     15  N   UNL     1     140.590  95.364 135.216  1.00  0.00    -0.276 NA
ATOM     16  C   UNL     1     139.953  95.245 133.913  1.00  0.00     0.220 C 
ENDROOT
BRANCH  14  17
ATOM     17  C   UNL     1     142.335  95.989 136.707  1.00  0.00     0.000 A 
ATOM     18  C   UNL     1     142.298  94.881 137.562  1.00  0.00     0.010 A 
ATOM     19  C   UNL     1     142.858  97.205 137.166  1.00  0.00     0.010 A 
ATOM     20  C   UNL     1     142.808  94.980 138.857  1.00  0.00     0.001 A 
ATOM     21  C   UNL     1     143.368  97.297 138.463  1.00  0.00     0.001 A 
ATOM     22  C   UNL     1     143.347  96.185 139.305  1.00  0.00     0.000 A 
ENDBRANCH  14  17
TORSDOF 1
ENDMDL
MODEL 6
REMARK VINA RESULT:    -6.919      3.296      6.241
REMARK INTER + INTRA:          -6.992
REMARK INTER:                  -6.503
REMARK INTRA:                  -0.489
REMARK UNBOUND:                 0.332
REMARK SMILES Cc1nnc2n1-c1ccc(Cl)cc1C(c1ccccc1)=NC2
REMARK SMILES IDX 1 1 2 2 3 3 4 4 5 5 6 6 7 7 8 8 9 9 10 10 11 11 12 12 13 13
REMARK SMILES IDX 14 14 21 15 22 16 15 17 16 18 20 19 17 20 19 21 18 22
REMARK H PARENT
ROOT
ATOM      1  C   UNL     1     140.050  97.636 138.120  1.00  0.00     0.090 C 
ATOM      2  C   UNL     1     140.439  98.277 136.842  1.00  0.00     0.134 A 
ATOM      3  N   UNL     1     139.751  99.235 136.255  1.00  0.00    -0.135 NA
ATOM      4  N   UNL     1     140.312  99.483 135.034  1.00  0.00    -0.133 NA
ATOM      5  C   UNL     1     141.340  98.675 134.891  1.00  0.00     0.159 A 
ATOM      6  N   UNL     1     141.498  97.910 136.026  1.00  0.00    -0.281 N 
ATOM      7  C   UNL     1     142.582  97.029 136.277  1.00  0.00     0.058 A 
ATOM      8  C   UNL     1     143.093  96.924 137.581  1.00  0.00     0.029 A 
ATOM      9  C   UNL     1     144.219  96.137 137.840  1.00  0.00     0.023 A 
ATOM     10  C   UNL     1     144.850  95.465 136.799  1.00  0.00     0.041 A 
ATOM     11  Cl  UNL     1     146.246  94.514 137.119  1.00  0.00    -0.084 Cl
ATOM     12  C   UNL     1     144.355  95.555 135.501  1.00  0.00     0.033 A 
ATOM     13  C   UNL     1     143.206  96.321 135.230  1.00  0.00     0.026 A 
ATOM     14  C   UNL     1     142.670  96.268 133.831  1.00  0.00     0.075 C 
ATOM     15  N   UNL     1     142.275  97.292 133.153  1.00  0.00    -0.276 NA
ATOM     16  C   UNL     1     142.284  98.619 133.751  1.00  0.00     0.220 C 
ENDROOT
BRANCH  14  17
ATOM     17  C   UNL     1     142.577  94.933 133.152  1.00  0.00     0.000 A 
ATOM     18  C   UNL     1     143.478  94.631 132.123  1.00  0.00     0.010 A 
ATOM     19  C   UNL     1     141.590  94.005 133.507  1.00  0.00     0.010 A 
ATOM     20  C   UNL     1     143.411  93.397 131.476  1.00  0.00     0.001 A 
ATOM     21  C   UNL     1     141.529  92.770 132.855  1.00  0.00     0.001 A 
ATOM     22  C   UNL     1     142.441  92.466 131.845  1.00  0.00     0.000 A 
ENDBRANCH  14  17
TORSDOF 1
ENDMDL
MODEL 7
REMARK VINA RESULT:    -6.701      3.494      5.633
REMARK INTER + INTRA:          -6.761
REMARK INTER:                  -6.335
REMARK INTRA:                  -0.425
REMARK UNBOUND:                 0.332
REMARK SMILES Cc1nnc2n1-c1ccc(Cl)cc1C(c1ccccc1)=NC2
REMARK SMILES IDX 1 1 2 2 3 3 4 4 5 5 6 6 7 7 8 8 9 9 10 10 11 11 12 12 13 13
REMARK SMILES IDX 14 14 21 15 22 16 15 17 16 18 20 19 17 20 19 21 18 22
REMARK H PARENT
ROOT
ATOM      1  C   UNL     1     139.940  99.100 133.993  1.00  0.00     0.090 C 
ATOM      2  C   UNL     1     140.374  98.516 135.283  1.00  0.00     0.134 A 
ATOM      3  N   UNL     1     140.347  99.158 136.433  1.00  0.00    -0.135 NA
ATOM      4  N   UNL     1     140.952  98.377 137.377  1.00  0.00    -0.133 NA
ATOM      5  C   UNL     1     141.340  97.264 136.793  1.00  0.00     0.159 A 
ATOM      6  N   UNL     1     140.964  97.274 135.468  1.00  0.00    -0.281 N 
ATOM      7  C   UNL     1     141.096  96.183 134.570  1.00  0.00     0.058 A 
ATOM      8  C   UNL     1     140.092  95.955 133.614  1.00  0.00     0.029 A 
ATOM      9  C   UNL     1     140.149  94.835 132.780  1.00  0.00     0.023 A 
ATOM     10  C   UNL     1     141.197  93.930 132.903  1.00  0.00     0.041 A 
ATOM     11  Cl  UNL     1     141.252  92.543 131.889  1.00  0.00    -0.084 Cl
ATOM     12  C   UNL     1     142.202  94.142 133.842  1.00  0.00     0.033 A 
ATOM     13  C   UNL     1     142.174  95.279 134.670  1.00  0.00     0.026 A 
ATOM     14  C   UNL     1     143.354  95.496 135.569  1.00  0.00     0.075 C 
ATOM     15  N   UNL     1     143.284  95.841 136.810  1.00  0.00    -0.276 NA
ATOM     16  C   UNL     1     141.993  96.098 137.430  1.00  0.00     0.220 C 
ENDROOT
BRANCH  14  17
ATOM     17  C   UNL     1     144.729  95.302 134.999  1.00  0.00     0.000 A 
ATOM     18  C   UNL     1     145.080  95.982 133.827  1.00  0.00     0.010 A 
ATOM     19  C   UNL     1     145.648  94.432 135.600  1.00  0.00     0.010 A 
ATOM     20  C   UNL     1     146.351  95.816 133.276  1.00  0.00     0.001 A 
ATOM     21  C   UNL     1     146.920  94.271 135.045  1.00  0.00     0.001 A 
ATOM     22  C   UNL     1     147.271  94.966 133.888  1.00  0.00     0.000 A 
ENDBRANCH  14  17
TORSDOF 1
ENDMDL
MODEL 8
REMARK VINA RESULT:    -6.662      2.605      4.988
REMARK INTER + INTRA:          -6.720
REMARK INTER:                  -6.839
REMARK INTRA:                   0.119
REMARK UNBOUND:                 0.332
REMARK SMILES Cc1nnc2n1-c1ccc(Cl)cc1C(c1ccccc1)=NC2
REMARK SMILES IDX 1 1 2 2 3 3 4 4 5 5 6 6 7 7 8 8 9 9 10 10 11 11 12 12 13 13
REMARK SMILES IDX 14 14 21 15 22 16 15 17 16 18 20 19 17 20 19 21 18 22
REMARK H PARENT
ROOT
ATOM      1  C   UNL     1     144.529  98.241 133.452  1.00  0.00     0.090 C 
ATOM      2  C   UNL     1     143.929  97.125 134.220  1.00  0.00     0.134 A 
ATOM      3  N   UNL     1     144.625  96.166 134.798  1.00  0.00    -0.135 NA
ATOM      4  N   UNL     1     143.753  95.235 135.285  1.00  0.00    -0.133 NA
ATOM      5  C   UNL     1     142.533  95.637 135.004  1.00  0.00     0.159 A 
ATOM      6  N   UNL     1     142.576  96.855 134.362  1.00  0.00    -0.281 N 
ATOM      7  C   UNL     1     141.447  97.649 134.031  1.00  0.00     0.058 A 
ATOM      8  C   UNL     1     141.538  99.048 134.134  1.00  0.00     0.029 A 
ATOM      9  C   UNL     1     140.416  99.849 133.906  1.00  0.00     0.023 A 
ATOM     10  C   UNL     1     139.196  99.262 133.591  1.00  0.00     0.041 A 
ATOM     11  Cl  UNL     1     137.813 100.250 133.331  1.00  0.00    -0.084 Cl
ATOM     12  C   UNL     1     139.088  97.878 133.482  1.00  0.00     0.033 A 
ATOM     13  C   UNL     1     140.216  97.059 133.681  1.00  0.00     0.026 A 
ATOM     14  C   UNL     1     140.043  95.592 133.427  1.00  0.00     0.075 C 
ATOM     15  N   UNL     1     140.488  94.653 134.191  1.00  0.00    -0.276 NA
ATOM     16  C   UNL     1     141.262  94.977 135.381  1.00  0.00     0.220 C 
ENDROOT
BRANCH  14  17
ATOM     17  C   UNL     1     139.301  95.164 132.195  1.00  0.00     0.000 A 
ATOM     18  C   UNL     1     137.977  95.586 132.020  1.00  0.00     0.010 A 
ATOM     19  C   UNL     1     139.896  94.328 131.242  1.00  0.00     0.010 A 
ATOM     20  C   UNL     1     137.265  95.200 130.883  1.00  0.00     0.001 A 
ATOM     21  C   UNL     1     139.178  93.945 130.106  1.00  0.00     0.001 A 
ATOM     22  C   UNL     1     137.867  94.385 129.926  1.00  0.00     0.000 A 
ENDBRANCH  14  17
TORSDOF 1
ENDMDL
MODEL 9
REMARK VINA RESULT:    -6.587      3.194      4.875
REMARK INTER + INTRA:          -6.640
REMARK INTER:                  -6.139
REMARK INTRA:                  -0.501
REMARK UNBOUND:                 0.332
REMARK SMILES Cc1nnc2n1-c1ccc(Cl)cc1C(c1ccccc1)=NC2
REMARK SMILES IDX 1 1 2 2 3 3 4 4 5 5 6 6 7 7 8 8 9 9 10 10 11 11 12 12 13 13
REMARK SMILES IDX 14 14 21 15 22 16 15 17 16 18 20 19 17 20 19 21 18 22
REMARK H PARENT
ROOT
ATOM      1  C   UNL     1     140.087  99.825 130.798  1.00  0.00     0.090 C 
ATOM      2  C   UNL     1     139.927  99.629 132.258  1.00  0.00     0.134 A 
ATOM      3  N   UNL     1     139.757 100.609 133.122  1.00  0.00    -0.135 NA
ATOM      4  N   UNL     1     139.794 100.084 134.383  1.00  0.00    -0.133 NA
ATOM      5  C   UNL     1     139.982  98.787 134.275  1.00  0.00     0.159 A 
ATOM      6  N   UNL     1     140.033  98.429 132.945  1.00  0.00    -0.281 N 
ATOM      7  C   UNL     1     140.089  97.098 132.455  1.00  0.00     0.058 A 
ATOM      8  C   UNL     1     139.391  96.769 131.282  1.00  0.00     0.029 A 
ATOM      9  C   UNL     1     139.350  95.447 130.828  1.00  0.00     0.023 A 
ATOM     10  C   UNL     1     139.992  94.447 131.549  1.00  0.00     0.041 A 
ATOM     11  Cl  UNL     1     139.924  92.819 130.998  1.00  0.00    -0.084 Cl
ATOM     12  C   UNL     1     140.692  94.755 132.712  1.00  0.00     0.033 A 
ATOM     13  C   UNL     1     140.765  96.085 133.166  1.00  0.00     0.026 A 
ATOM     14  C   UNL     1     141.637  96.350 134.356  1.00  0.00     0.075 C 
ATOM     15  N   UNL     1     141.313  97.095 135.358  1.00  0.00    -0.276 NA
ATOM     16  C   UNL     1     140.036  97.794 135.372  1.00  0.00     0.220 C 
ENDROOT
BRANCH  14  17
ATOM     17  C   UNL     1     142.993  95.709 134.404  1.00  0.00     0.000 A 
ATOM     18  C   UNL     1     143.239  94.710 135.353  1.00  0.00     0.010 A 
ATOM     19  C   UNL     1     144.019  96.115 133.540  1.00  0.00     0.010 A 
ATOM     20  C   UNL     1     144.493  94.100 135.418  1.00  0.00     0.001 A 
ATOM     21  C   UNL     1     145.271  95.501 133.610  1.00  0.00     0.001 A 
ATOM     22  C   UNL     1     145.506  94.492 134.544  1.00  0.00     0.000 A 
ENDBRANCH  14  17
TORSDOF 1
ENDMDL
