MODEL 1
REMARK VINA RESULT:    -7.489      0.000      0.000
REMARK INTER + INTRA:          -8.349
REMARK INTER:                  -7.927
REMARK INTRA:                  -0.423
REMARK UNBOUND:                -0.423
REMARK SMILES Cc1ncc2n1-c1ccc(Cl)cc1C(c1ccccc1F)=NC2
REMARK SMILES IDX 1 1 2 2 3 3 4 4 5 5 6 6 7 7 8 8 9 9 10 10 11 11 12 12 13 13
REMARK SMILES IDX 14 14 22 15 23 16 15 17 16 18 20 19 17 20 19 21 18 22 21 23
REMARK H PARENT
ROOT
ATOM      1  C   UNL     1     144.099  98.466 134.466  1.00  0.00     0.088 C 
ATOM      2  C   UNL     1     143.847  97.038 134.792  1.00  0.00     0.110 A 
ATOM      3  N   UNL     1     144.563  96.047 134.292  1.00  0.00    -0.241 NA
ATOM      4  C   UNL     1     144.151  94.922 134.941  1.00  0.00     0.137 A 
ATOM      5  C   UNL     1     143.148  95.214 135.834  1.00  0.00     0.064 A 
ATOM      6  N   UNL     1     142.925  96.570 135.726  1.00  0.00    -0.298 N 
ATOM      7  C   UNL     1     141.907  97.281 136.421  1.00  0.00     0.057 A 
ATOM      8  C   UNL     1     141.244  98.336 135.775  1.00  0.00     0.029 A 
ATOM      9  C   UNL     1     140.204  99.016 136.412  1.00  0.00     0.023 A 
ATOM     10  C   UNL     1     139.811  98.640 137.692  1.00  0.00     0.041 A 
ATOM     11  Cl  UNL     1     138.524  99.472 138.470  1.00  0.00    -0.084 Cl
ATOM     12  C   UNL     1     140.454  97.593 138.347  1.00  0.00     0.033 A 
ATOM     13  C   UNL     1     141.512  96.908 137.722  1.00  0.00     0.026 A 
ATOM     14  C   UNL     1     142.220  95.862 138.531  1.00  0.00     0.077 C 
ATOM     15  N   UNL     1     142.613  94.713 138.101  1.00  0.00    -0.278 NA
ATOM     16  C   UNL     1     142.359  94.339 136.722  1.00  0.00     0.198 C 
ENDROOT
BRANCH  14  17
ATOM     17  C   UNL     1     142.528  96.185 139.947  1.00  0.00     0.036 A 
ATOM     18  C   UNL     1     141.575  95.932 140.941  1.00  0.00     0.013 A 
ATOM     19  C   UNL     1     143.756  96.752 140.284  1.00  0.00     0.132 A 
ATOM     20  C   UNL     1     141.867  96.244 142.270  1.00  0.00     0.001 A 
ATOM     21  C   UNL     1     144.047  97.061 141.609  1.00  0.00     0.040 A 
ATOM     22  C   UNL     1     143.101  96.806 142.604  1.00  0.00     0.003 A 
ATOM     23  F   UNL     1     144.696  96.965 139.351  1.00  0.00    -0.206 F 
ENDBRANCH  14  17
TORSDOF 1
ENDMDL
MODEL 2
REMARK VINA RESULT:    -7.446      2.695      4.267
REMARK INTER + INTRA:          -8.304
REMARK INTER:                  -9.179
REMARK INTRA:                   0.875
REMARK UNBOUND:                -0.423
REMARK SMILES Cc1ncc2n1-c1ccc(Cl)cc1C(c1ccccc1F)=NC2
REMARK SMILES IDX 1 1 2 2 3 3 4 4 5 5 6 6 7 7 8 8 9 9 10 10 11 11 12 12 13 13
REMARK SMILES IDX 14 14 22 15 23 16 15 17 16 18 20 19 17 20 19 21 18 22 21 23
REMARK H PARENT
ROOT
ATOM      1  C   UNL     1     140.797  98.054 137.612  1.00  0.00     0.088 C 
ATOM      2  C   UNL     1     142.071  97.322 137.385  1.00  0.00     0.110 A 
ATOM      3  N   UNL     1     142.649  97.231 136.201  1.00  0.00    -0.241 NA
ATOM      4  C   UNL     1     143.859  96.642 136.419  1.00  0.00     0.137 A 
ATOM      5  C   UNL     1     144.021  96.338 137.750  1.00  0.00     0.064 A 
ATOM      6  N   UNL     1     142.863  96.748 138.377  1.00  0.00    -0.298 N 
ATOM      7  C   UNL     1     142.576  96.548 139.756  1.00  0.00     0.057 A 
ATOM      8  C   UNL     1     141.260  96.255 140.148  1.00  0.00     0.029 A 
ATOM      9  C   UNL     1     140.958  96.001 141.488  1.00  0.00     0.023 A 
ATOM     10  C   UNL     1     141.969  96.026 142.442  1.00  0.00     0.041 A 
ATOM     11  Cl  UNL     1     141.597  95.702 144.089  1.00  0.00    -0.084 Cl
ATOM     12  C   UNL     1     143.281  96.309 142.072  1.00  0.00     0.033 A 
ATOM     13  C   UNL     1     143.597  96.580 140.728  1.00  0.00     0.026 A 
ATOM     14  C   UNL     1     145.011  96.978 140.427  1.00  0.00     0.077 C 
ATOM     15  N   UNL     1     145.707  96.586 139.415  1.00  0.00    -0.278 NA
ATOM     16  C   UNL     1     145.122  95.662 138.460  1.00  0.00     0.198 C 
ENDROOT
BRANCH  14  17
ATOM     17  C   UNL     1     145.665  97.936 141.354  1.00  0.00     0.036 A 
ATOM     18  C   UNL     1     144.950  98.446 142.444  1.00  0.00     0.013 A 
ATOM     19  C   UNL     1     146.982  98.335 141.132  1.00  0.00     0.132 A 
ATOM     20  C   UNL     1     145.567  99.351 143.310  1.00  0.00     0.001 A 
ATOM     21  C   UNL     1     147.597  99.236 141.996  1.00  0.00     0.040 A 
ATOM     22  C   UNL     1     146.889  99.745 143.086  1.00  0.00     0.003 A 
ATOM     23  F   UNL     1     147.695  97.827 140.116  1.00  0.00    -0.206 F 
ENDBRANCH  14  17
TORSDOF 1
ENDMDL
MODEL 3
REMARK VINA RESULT:    -7.211      3.355      5.036
REMARK INTER + INTRA:          -8.055
REMARK INTER:                  -7.698
REMARK INTRA:                  -0.357
REMARK UNBOUND:                -0.423
REMARK SMILES Cc1ncc2n1-c1ccc(Cl)cc1C(c1ccccc1F)=NC2
REMARK SMILES IDX 1 1 2 2 3 3 4 4 5 5 6 6 7 7 8 8 9 9 10 10 11 11 12 12 13 13
REMARK SMILES IDX 14 14 22 15 23 16 15 17 16 18 20 19 17 20 19 21 18 22 21 23
REMARK H PARENT
ROOT
ATOM      1  C   UNL     1     138.208  95.757 133.289  1.00  0.00     0.088 C 
ATOM      2  C   UNL     1     139.046  96.981 133.382  1.00  0.00     0.110 A 
ATOM      3  N   UNL     1     138.557  98.201 133.250  1.00  0.00    -0.241 NA
ATOM      4  C   UNL     1     139.578  99.049 133.560  1.00  0.00     0.137 A 
ATOM      5  C   UNL     1     140.721  98.348 133.859  1.00  0.00     0.064 A 
ATOM      6  N   UNL     1     140.397  97.015 133.720  1.00  0.00    -0.298 N 
ATOM      7  C   UNL     1     141.319  95.940 133.860  1.00  0.00     0.057 A 
ATOM      8  C   UNL     1     141.197  94.819 133.023  1.00  0.00     0.029 A 
ATOM      9  C   UNL     1     142.119  93.772 133.101  1.00  0.00     0.023 A 
ATOM     10  C   UNL     1     143.173  93.843 134.004  1.00  0.00     0.041 A 
ATOM     11  Cl  UNL     1     144.312  92.558 134.090  1.00  0.00    -0.084 Cl
ATOM     12  C   UNL     1     143.313  94.949 134.839  1.00  0.00     0.033 A 
ATOM     13  C   UNL     1     142.384  96.004 134.781  1.00  0.00     0.026 A 
ATOM     14  C   UNL     1     142.544  97.109 135.782  1.00  0.00     0.077 C 
ATOM     15  N   UNL     1     142.404  98.368 135.547  1.00  0.00    -0.278 NA
ATOM     16  C   UNL     1     142.078  98.812 134.204  1.00  0.00     0.198 C 
ENDROOT
BRANCH  14  17
ATOM     17  C   UNL     1     142.859  96.724 137.182  1.00  0.00     0.036 A 
ATOM     18  C   UNL     1     144.185  96.459 137.547  1.00  0.00     0.013 A 
ATOM     19  C   UNL     1     141.838  96.613 138.123  1.00  0.00     0.132 A 
ATOM     20  C   UNL     1     144.475  96.091 138.862  1.00  0.00     0.001 A 
ATOM     21  C   UNL     1     142.129  96.248 139.435  1.00  0.00     0.040 A 
ATOM     22  C   UNL     1     143.449  95.987 139.804  1.00  0.00     0.003 A 
ATOM     23  F   UNL     1     140.568  96.901 137.801  1.00  0.00    -0.206 F 
ENDBRANCH  14  17
TORSDOF 1
ENDMDL
MODEL 4
REMARK VINA RESULT:    -6.926      3.196      4.750
REMARK INTER + INTRA:          -7.753
REMARK INTER:                  -7.182
REMARK INTRA:                  -0.571
REMARK UNBOUND:                -0.423
REMARK SMILES Cc1ncc2n1-c1ccc(Cl)cc1C(c1ccccc1F)=NC2
REMARK SMILES IDX 1 1 2 2 3 3 4 4 5 5 6 6 7 7 8 8 9 9 10 10 11 11 12 12 13 13
REMARK SMILES IDX 14 14 22 15 23 16 15 17 16 18 20 19 17 20 19 21 18 22 21 23
REMARK H PARENT
ROOT
ATOM      1  C   UNL     1     141.141  93.994 132.917  1.00  0.00     0.088 C 
ATOM      2  C   UNL     1     141.384  95.417 133.274  1.00  0.00     0.110 A 
ATOM      3  N   UNL     1     140.570  96.396 132.926  1.00  0.00    -0.241 NA
ATOM      4  C   UNL     1     141.029  97.509 133.566  1.00  0.00     0.137 A 
ATOM      5  C   UNL     1     142.157  97.222 134.296  1.00  0.00     0.064 A 
ATOM      6  N   UNL     1     142.411  95.882 134.092  1.00  0.00    -0.298 N 
ATOM      7  C   UNL     1     143.541  95.187 134.605  1.00  0.00     0.057 A 
ATOM      8  C   UNL     1     144.145  94.188 133.824  1.00  0.00     0.029 A 
ATOM      9  C   UNL     1     145.287  93.526 134.277  1.00  0.00     0.023 A 
ATOM     10  C   UNL     1     145.841  93.864 135.507  1.00  0.00     0.041 A 
ATOM     11  Cl  UNL     1     147.254  93.054 136.059  1.00  0.00    -0.084 Cl
ATOM     12  C   UNL     1     145.260  94.854 136.294  1.00  0.00     0.033 A 
ATOM     13  C   UNL     1     144.101  95.520 135.856  1.00  0.00     0.026 A 
ATOM     14  C   UNL     1     143.477  96.499 136.804  1.00  0.00     0.077 C 
ATOM     15  N   UNL     1     142.986  97.649 136.489  1.00  0.00    -0.278 NA
ATOM     16  C   UNL     1     143.031  98.091 135.107  1.00  0.00     0.198 C 
ENDROOT
BRANCH  14  17
ATOM     17  C   UNL     1     143.382  96.103 138.232  1.00  0.00     0.036 A 
ATOM     18  C   UNL     1     144.052  96.852 139.206  1.00  0.00     0.013 A 
ATOM     19  C   UNL     1     142.639  94.982 138.598  1.00  0.00     0.132 A 
ATOM     20  C   UNL     1     143.965  96.472 140.547  1.00  0.00     0.001 A 
ATOM     21  C   UNL     1     142.552  94.604 139.935  1.00  0.00     0.040 A 
ATOM     22  C   UNL     1     143.215  95.350 140.911  1.00  0.00     0.003 A 
ATOM     23  F   UNL     1     141.959  94.275 137.684  1.00  0.00    -0.206 F 
ENDBRANCH  14  17
TORSDOF 1
ENDMDL
MODEL 5
REMARK VINA RESULT:    -6.862      3.388      6.250
REMARK INTER + INTRA:          -7.686
REMARK INTER:                  -7.051
REMARK INTRA:                  -0.635
REMARK UNBOUND:                -0.423
REMARK SMILES Cc1ncc2n1-c1ccc(Cl)cc1C(c1ccccc1F)=NC2
REMARK SMILES IDX 1 1 2 2 3 3 4 4 5 5 6 6 7 7 8 8 9 9 10 10 11 11 12 12 13 13
REMARK SMILES IDX 14 14 22 15 23 16 15 17 16 18 20 19 17 20 19 21 18 22 21 23
REMARK H PARENT
ROOT
ATOM      1  C   UNL     1     145.094  94.308 135.784  1.00  0.00     0.088 C 
ATOM      2  C   UNL     1     145.267  95.286 134.677  1.00  0.00     0.110 A 
ATOM      3  N   UNL     1     146.221  95.185 133.769  1.00  0.00    -0.241 NA
ATOM      4  C   UNL     1     145.958  96.149 132.842  1.00  0.00     0.137 A 
ATOM      5  C   UNL     1     144.845  96.874 133.193  1.00  0.00     0.064 A 
ATOM      6  N   UNL     1     144.408  96.343 134.389  1.00  0.00    -0.298 N 
ATOM      7  C   UNL     1     143.319  96.854 135.150  1.00  0.00     0.057 A 
ATOM      8  C   UNL     1     143.396  96.840 136.552  1.00  0.00     0.029 A 
ATOM      9  C   UNL     1     142.367  97.383 137.324  1.00  0.00     0.023 A 
ATOM     10  C   UNL     1     141.262  97.954 136.703  1.00  0.00     0.041 A 
ATOM     11  Cl  UNL     1     140.001  98.631 137.656  1.00  0.00    -0.084 Cl
ATOM     12  C   UNL     1     141.170  97.981 135.314  1.00  0.00     0.033 A 
ATOM     13  C   UNL     1     142.193  97.426 134.524  1.00  0.00     0.026 A 
ATOM     14  C   UNL     1     141.972  97.402 133.041  1.00  0.00     0.077 C 
ATOM     15  N   UNL     1     142.858  97.661 132.141  1.00  0.00    -0.278 NA
ATOM     16  C   UNL     1     144.201  98.032 132.546  1.00  0.00     0.198 C 
ENDROOT
BRANCH  14  17
ATOM     17  C   UNL     1     140.624  97.013 132.556  1.00  0.00     0.036 A 
ATOM     18  C   UNL     1     140.226  95.672 132.610  1.00  0.00     0.013 A 
ATOM     19  C   UNL     1     139.763  97.978 132.036  1.00  0.00     0.132 A 
ATOM     20  C   UNL     1     138.959  95.310 132.147  1.00  0.00     0.001 A 
ATOM     21  C   UNL     1     138.500  97.617 131.576  1.00  0.00     0.040 A 
ATOM     22  C   UNL     1     138.097  96.282 131.632  1.00  0.00     0.003 A 
ATOM     23  F   UNL     1     140.111  99.273 132.012  1.00  0.00    -0.206 F 
ENDBRANCH  14  17
TORSDOF 1
ENDMDL
MODEL 6
REMARK VINA RESULT:    -6.793      3.815      5.580
REMARK INTER + INTRA:          -7.612
REMARK INTER:                  -7.005
REMARK INTRA:                  -0.607
REMARK UNBOUND:                -0.423
REMARK SMILES Cc1ncc2n1-c1ccc(Cl)cc1C(c1ccccc1F)=NC2
REMARK SMILES IDX 1 1 2 2 3 3 4 4 5 5 6 6 7 7 8 8 9 9 10 10 11 11 12 12 13 13
REMARK SMILES IDX 14 14 22 15 23 16 15 17 16 18 20 19 17 20 19 21 18 22 21 23
REMARK H PARENT
ROOT
ATOM      1  C   UNL     1     139.745  95.357 130.972  1.00  0.00     0.088 C 
ATOM      2  C   UNL     1     139.659  96.666 131.671  1.00  0.00     0.110 A 
ATOM      3  N   UNL     1     138.552  97.385 131.721  1.00  0.00    -0.241 NA
ATOM      4  C   UNL     1     138.813  98.415 132.574  1.00  0.00     0.137 A 
ATOM      5  C   UNL     1     140.106  98.351 133.035  1.00  0.00     0.064 A 
ATOM      6  N   UNL     1     140.668  97.243 132.438  1.00  0.00    -0.298 N 
ATOM      7  C   UNL     1     142.029  96.852 132.580  1.00  0.00     0.057 A 
ATOM      8  C   UNL     1     142.702  96.298 131.479  1.00  0.00     0.029 A 
ATOM      9  C   UNL     1     144.052  95.954 131.572  1.00  0.00     0.023 A 
ATOM     10  C   UNL     1     144.742  96.171 132.759  1.00  0.00     0.041 A 
ATOM     11  Cl  UNL     1     146.407  95.756 132.868  1.00  0.00    -0.084 Cl
ATOM     12  C   UNL     1     144.093  96.723 133.860  1.00  0.00     0.033 A 
ATOM     13  C   UNL     1     142.730  97.062 133.785  1.00  0.00     0.026 A 
ATOM     14  C   UNL     1     142.079  97.554 135.042  1.00  0.00     0.077 C 
ATOM     15  N   UNL     1     141.235  98.525 135.126  1.00  0.00    -0.278 NA
ATOM     16  C   UNL     1     140.860  99.252 133.927  1.00  0.00     0.198 C 
ENDROOT
BRANCH  14  17
ATOM     17  C   UNL     1     142.404  96.844 136.305  1.00  0.00     0.036 A 
ATOM     18  C   UNL     1     143.106  97.511 137.316  1.00  0.00     0.013 A 
ATOM     19  C   UNL     1     142.024  95.514 136.477  1.00  0.00     0.132 A 
ATOM     20  C   UNL     1     143.416  96.836 138.499  1.00  0.00     0.001 A 
ATOM     21  C   UNL     1     142.331  94.843 137.657  1.00  0.00     0.040 A 
ATOM     22  C   UNL     1     143.028  95.505 138.669  1.00  0.00     0.003 A 
ATOM     23  F   UNL     1     141.316  94.871 135.536  1.00  0.00    -0.206 F 
ENDBRANCH  14  17
TORSDOF 1
ENDMDL
MODEL 7
REMARK VINA RESULT:    -6.767      4.440      7.280
REMARK INTER + INTRA:          -7.585
REMARK INTER:                  -7.241
REMARK INTRA:                  -0.344
REMARK UNBOUND:                -0.423
REMARK SMILES Cc1ncc2n1-c1ccc(Cl)cc1C(c1ccccc1F)=NC2
REMARK SMILES IDX 1 1 2 2 3 3 4 4 5 5 6 6 7 7 8 8 9 9 10 10 11 11 12 12 13 13
REMARK SMILES IDX 14 14 22 15 23 16 15 17 16 18 20 19 17 20 19 21 18 22 21 23
REMARK H PARENT
ROOT
ATOM      1  C   UNL     1     142.299  95.162 136.163  1.00  0.00     0.088 C 
ATOM      2  C   UNL     1     142.891  95.429 134.826  1.00  0.00     0.110 A 
ATOM      3  N   UNL     1     143.868  94.704 134.312  1.00  0.00    -0.241 NA
ATOM      4  C   UNL     1     144.023  95.139 133.030  1.00  0.00     0.137 A 
ATOM      5  C   UNL     1     143.152  96.165 132.754  1.00  0.00     0.064 A 
ATOM      6  N   UNL     1     142.436  96.379 133.914  1.00  0.00    -0.298 N 
ATOM      7  C   UNL     1     141.475  97.412 134.092  1.00  0.00     0.057 A 
ATOM      8  C   UNL     1     141.379  98.053 135.338  1.00  0.00     0.029 A 
ATOM      9  C   UNL     1     140.482  99.107 135.527  1.00  0.00     0.023 A 
ATOM     10  C   UNL     1     139.685  99.536 134.472  1.00  0.00     0.041 A 
ATOM     11  Cl  UNL     1     138.590 100.841 134.704  1.00  0.00    -0.084 Cl
ATOM     12  C   UNL     1     139.770  98.916 133.228  1.00  0.00     0.033 A 
ATOM     13  C   UNL     1     140.658  97.845 133.027  1.00  0.00     0.026 A 
ATOM     14  C   UNL     1     140.616  97.164 131.691  1.00  0.00     0.077 C 
ATOM     15  N   UNL     1     141.637  96.764 131.015  1.00  0.00    -0.278 NA
ATOM     16  C   UNL     1     142.973  96.982 131.540  1.00  0.00     0.198 C 
ENDROOT
BRANCH  14  17
ATOM     17  C   UNL     1     139.280  96.894 131.103  1.00  0.00     0.036 A 
ATOM     18  C   UNL     1     138.606  97.909 130.414  1.00  0.00     0.013 A 
ATOM     19  C   UNL     1     138.693  95.637 131.249  1.00  0.00     0.132 A 
ATOM     20  C   UNL     1     137.346  97.651 129.869  1.00  0.00     0.001 A 
ATOM     21  C   UNL     1     137.439  95.381 130.704  1.00  0.00     0.040 A 
ATOM     22  C   UNL     1     136.764  96.389 130.013  1.00  0.00     0.003 A 
ATOM     23  F   UNL     1     139.341  94.642 131.871  1.00  0.00    -0.206 F 
ENDBRANCH  14  17
TORSDOF 1
ENDMDL
MODEL 8
REMARK VINA RESULT:    -6.706      4.713      7.245
REMARK INTER + INTRA:          -7.520
REMARK INTER:                  -7.034
REMARK INTRA:                  -0.487
REMARK UNBOUND:                -0.423
REMARK SMILES Cc1ncc2n1-c1ccc(Cl)cc1C(c1ccccc1F)=NC2
REMARK SMILES IDX 1 1 2 2 3 3 4 4 5 5 6 6 7 7 8 8 9 9 10 10 11 11 12 12 13 13
REMARK SMILES IDX 14 14 22 15 23 16 15 17 16 18 20 19 17 20 19 21 18 22 21 23
REMARK H PARENT
ROOT
ATOM      1  C   UNL     1     140.218  98.174 137.110  1.00  0.00     0.088 C 
ATOM      2  C   UNL     1     141.122  97.122 136.573  1.00  0.00     0.110 A 
ATOM      3  N   UNL     1     141.680  96.196 137.330  1.00  0.00    -0.241 NA
ATOM      4  C   UNL     1     142.291  95.330 136.474  1.00  0.00     0.137 A 
ATOM      5  C   UNL     1     142.135  95.740 135.172  1.00  0.00     0.064 A 
ATOM      6  N   UNL     1     141.406  96.910 135.226  1.00  0.00    -0.298 N 
ATOM      7  C   UNL     1     141.086  97.716 134.099  1.00  0.00     0.057 A 
ATOM      8  C   UNL     1     141.074  99.113 134.235  1.00  0.00     0.029 A 
ATOM      9  C   UNL     1     140.816  99.932 133.133  1.00  0.00     0.023 A 
ATOM     10  C   UNL     1     140.580  99.362 131.888  1.00  0.00     0.041 A 
ATOM     11  Cl  UNL     1     140.273 100.373 130.531  1.00  0.00    -0.084 Cl
ATOM     12  C   UNL     1     140.591  97.979 131.731  1.00  0.00     0.033 A 
ATOM     13  C   UNL     1     140.836  97.142 132.835  1.00  0.00     0.026 A 
ATOM     14  C   UNL     1     140.730  95.663 132.607  1.00  0.00     0.077 C 
ATOM     15  N   UNL     1     141.522  94.766 133.085  1.00  0.00    -0.278 NA
ATOM     16  C   UNL     1     142.646  95.171 133.910  1.00  0.00     0.198 C 
ENDROOT
BRANCH  14  17
ATOM     17  C   UNL     1     139.592  95.178 131.785  1.00  0.00     0.036 A 
ATOM     18  C   UNL     1     139.840  94.408 130.643  1.00  0.00     0.013 A 
ATOM     19  C   UNL     1     138.284  95.500 132.143  1.00  0.00     0.132 A 
ATOM     20  C   UNL     1     138.767  93.960 129.870  1.00  0.00     0.001 A 
ATOM     21  C   UNL     1     137.215  95.052 131.373  1.00  0.00     0.040 A 
ATOM     22  C   UNL     1     137.457  94.280 130.235  1.00  0.00     0.003 A 
ATOM     23  F   UNL     1     138.026  96.204 133.255  1.00  0.00    -0.206 F 
ENDBRANCH  14  17
TORSDOF 1
ENDMDL
MODEL 9
REMARK VINA RESULT:    -6.622      3.148      5.484
REMARK INTER + INTRA:          -7.432
REMARK INTER:                  -6.805
REMARK INTRA:                  -0.627
REMARK UNBOUND:                -0.423
REMARK SMILES Cc1ncc2n1-c1ccc(Cl)cc1C(c1ccccc1F)=NC2
REMARK SMILES IDX 1 1 2 2 3 3 4 4 5 5 6 6 7 7 8 8 9 9 10 10 11 11 12 12 13 13
REMARK SMILES IDX 14 14 22 15 23 16 15 17 16 18 20 19 17 20 19 21 18 22 21 23
REMARK H PARENT
ROOT
ATOM      1  C   UNL     1     139.597 100.305 134.208  1.00  0.00     0.088 C 
ATOM      2  C   UNL     1     139.245  98.973 133.650  1.00  0.00     0.110 A 
ATOM      3  N   UNL     1     138.561  98.818 132.532  1.00  0.00    -0.241 NA
ATOM      4  C   UNL     1     138.581  97.482 132.262  1.00  0.00     0.137 A 
ATOM      5  C   UNL     1     139.262  96.797 133.240  1.00  0.00     0.064 A 
ATOM      6  N   UNL     1     139.670  97.746 134.154  1.00  0.00    -0.298 N 
ATOM      7  C   UNL     1     140.344  97.456 135.373  1.00  0.00     0.057 A 
ATOM      8  C   UNL     1     140.054  98.220 136.516  1.00  0.00     0.029 A 
ATOM      9  C   UNL     1     140.660  97.925 137.739  1.00  0.00     0.023 A 
ATOM     10  C   UNL     1     141.548  96.860 137.833  1.00  0.00     0.041 A 
ATOM     11  Cl  UNL     1     142.284  96.492 139.343  1.00  0.00    -0.084 Cl
ATOM     12  C   UNL     1     141.844  96.088 136.712  1.00  0.00     0.033 A 
ATOM     13  C   UNL     1     141.252  96.382 135.471  1.00  0.00     0.026 A 
ATOM     14  C   UNL     1     141.700  95.571 134.292  1.00  0.00     0.077 C 
ATOM     15  N   UNL     1     140.940  95.110 133.359  1.00  0.00    -0.278 NA
ATOM     16  C   UNL     1     139.510  95.354 133.416  1.00  0.00     0.198 C 
ENDROOT
BRANCH  14  17
ATOM     17  C   UNL     1     143.155  95.299 134.162  1.00  0.00     0.036 A 
ATOM     18  C   UNL     1     143.654  94.029 134.477  1.00  0.00     0.013 A 
ATOM     19  C   UNL     1     144.020  96.308 133.742  1.00  0.00     0.132 A 
ATOM     20  C   UNL     1     145.023  93.780 134.359  1.00  0.00     0.001 A 
ATOM     21  C   UNL     1     145.384  96.058 133.624  1.00  0.00     0.040 A 
ATOM     22  C   UNL     1     145.886  94.792 133.933  1.00  0.00     0.003 A 
ATOM     23  F   UNL     1     143.554  97.518 133.399  1.00  0.00    -0.206 F 
ENDBRANCH  14  17
TORSDOF 1
ENDMDL
