MODEL 1
REMARK VINA RESULT:   -10.365      0.000      0.000
REMARK INTER + INTRA:         -12.730
REMARK INTER:                 -12.183
REMARK INTRA:                  -0.546
REMARK UNBOUND:                -0.546
REMARK SMILES Cc1ccc(-c2nc3ccc(C)cn3c2CC(=O)N(C)C)cc1
REMARK SMILES IDX 6 1 7 2 8 3 9 4 10 5 11 6 12 7 13 8 14 9 15 10 5 11 2 12
REMARK SMILES IDX 3 13 23 14 4 15 22 16 1 17 16 18 17 19 18 20 19 21 20 22
REMARK SMILES IDX 21 23
REMARK H PARENT
ROOT
ATOM      1  C   UNL     1     119.274 158.125 107.510  1.00  0.00     0.093 A 
ATOM      2  N   UNL     1     119.872 158.497 106.331  1.00  0.00    -0.228 NA
ATOM      3  C   UNL     1     120.811 159.350 106.669  1.00  0.00     0.137 A 
ATOM      4  C   UNL     1     121.727 160.086 105.867  1.00  0.00     0.048 C 
ATOM      5  C   UNL     1     122.589 160.943 106.446  1.00  0.00     0.009 C 
ATOM      6  C   UNL     1     122.613 161.142 107.893  1.00  0.00    -0.034 C 
ATOM      7  C   UNL     1     123.597 162.121 108.451  1.00  0.00     0.046 C 
ATOM      8  C   UNL     1     121.752 160.435 108.650  1.00  0.00     0.096 C 
ATOM      9  N   UNL     1     120.866 159.538 108.047  1.00  0.00    -0.303 N 
ATOM     10  C   UNL     1     119.913 158.694 108.603  1.00  0.00     0.060 A 
ENDROOT
BRANCH   1  11
ATOM     11  C   UNL     1     118.153 157.205 107.531  1.00  0.00     0.002 A 
ATOM     12  C   UNL     1     115.997 155.391 107.525  1.00  0.00    -0.051 A 
ATOM     13  C   UNL     1     117.105 155.178 106.697  1.00  0.00     0.004 A 
ATOM     14  C   UNL     1     115.976 156.517 108.357  1.00  0.00     0.004 A 
ATOM     15  C   UNL     1     118.168 156.085 106.692  1.00  0.00     0.011 A 
ATOM     16  C   UNL     1     117.041 157.423 108.352  1.00  0.00     0.011 A 
ATOM     17  C   UNL     1     114.867 154.405 107.552  1.00  0.00     0.044 C 
ENDBRANCH   1  11
BRANCH  10  18
ATOM     18  C   UNL     1     119.715 158.525 110.077  1.00  0.00     0.157 C 
BRANCH  18  19
ATOM     19  C   UNL     1     118.713 159.536 110.633  1.00  0.00     0.228 C 
ATOM     20  O   UNL     1     118.815 160.722 110.302  1.00  0.00    -0.274 OA
ATOM     21  N   UNL     1     117.716 159.101 111.496  1.00  0.00    -0.348 N 
ATOM     22  C   UNL     1     117.506 157.721 111.904  1.00  0.00     0.146 C 
ATOM     23  C   UNL     1     116.860 160.087 112.137  1.00  0.00     0.146 C 
ENDBRANCH  18  19
ENDBRANCH  10  18
TORSDOF 3
ENDMDL
MODEL 2
REMARK VINA RESULT:    -9.257      2.603      4.900
REMARK INTER + INTRA:         -11.427
REMARK INTER:                 -11.128
REMARK INTRA:                  -0.299
REMARK UNBOUND:                -0.546
REMARK SMILES Cc1ccc(-c2nc3ccc(C)cn3c2CC(=O)N(C)C)cc1
REMARK SMILES IDX 6 1 7 2 8 3 9 4 10 5 11 6 12 7 13 8 14 9 15 10 5 11 2 12
REMARK SMILES IDX 3 13 23 14 4 15 22 16 1 17 16 18 17 19 18 20 19 21 20 22
REMARK SMILES IDX 21 23
REMARK H PARENT
ROOT
ATOM      1  C   UNL     1     117.441 156.137 110.549  1.00  0.00     0.093 A 
ATOM      2  N   UNL     1     117.027 155.350 109.502  1.00  0.00    -0.228 NA
ATOM      3  C   UNL     1     117.649 155.820 108.445  1.00  0.00     0.137 A 
ATOM      4  C   UNL     1     117.586 155.424 107.079  1.00  0.00     0.048 C 
ATOM      5  C   UNL     1     118.300 156.090 106.153  1.00  0.00     0.009 C 
ATOM      6  C   UNL     1     119.149 157.223 106.511  1.00  0.00    -0.034 C 
ATOM      7  C   UNL     1     119.900 157.911 105.416  1.00  0.00     0.046 C 
ATOM      8  C   UNL     1     119.216 157.588 107.806  1.00  0.00     0.096 C 
ATOM      9  N   UNL     1     118.483 156.887 108.768  1.00  0.00    -0.303 N 
ATOM     10  C   UNL     1     118.401 157.054 110.145  1.00  0.00     0.060 A 
ENDROOT
BRANCH   1  11
ATOM     11  C   UNL     1     116.930 155.936 111.892  1.00  0.00     0.002 A 
ATOM     12  C   UNL     1     115.991 155.531 114.516  1.00  0.00    -0.051 A 
ATOM     13  C   UNL     1     117.364 155.531 114.247  1.00  0.00     0.004 A 
ATOM     14  C   UNL     1     115.091 155.738 113.464  1.00  0.00     0.004 A 
ATOM     15  C   UNL     1     117.828 155.719 112.942  1.00  0.00     0.011 A 
ATOM     16  C   UNL     1     115.557 155.928 112.160  1.00  0.00     0.011 A 
ATOM     17  C   UNL     1     115.492 155.356 115.920  1.00  0.00     0.044 C 
ENDBRANCH   1  11
BRANCH  10  18
ATOM     18  C   UNL     1     119.222 158.046 110.909  1.00  0.00     0.157 C 
BRANCH  18  19
ATOM     19  C   UNL     1     118.765 159.480 110.647  1.00  0.00     0.228 C 
ATOM     20  O   UNL     1     119.334 160.139 109.771  1.00  0.00    -0.274 OA
ATOM     21  N   UNL     1     117.724 160.010 111.398  1.00  0.00    -0.348 N 
ATOM     22  C   UNL     1     116.979 159.290 112.420  1.00  0.00     0.146 C 
ATOM     23  C   UNL     1     117.393 161.418 111.249  1.00  0.00     0.146 C 
ENDBRANCH  18  19
ENDBRANCH  10  18
TORSDOF 3
ENDMDL
MODEL 3
REMARK VINA RESULT:    -9.088      1.886      5.322
REMARK INTER + INTRA:         -11.228
REMARK INTER:                 -10.368
REMARK INTRA:                  -0.860
REMARK UNBOUND:                -0.546
REMARK SMILES Cc1ccc(-c2nc3ccc(C)cn3c2CC(=O)N(C)C)cc1
REMARK SMILES IDX 6 1 7 2 8 3 9 4 10 5 11 6 12 7 13 8 14 9 15 10 5 11 2 12
REMARK SMILES IDX 3 13 23 14 4 15 22 16 1 17 16 18 17 19 18 20 19 21 20 22
REMARK SMILES IDX 21 23
REMARK H PARENT
ROOT
ATOM      1  C   UNL     1     117.802 157.133 110.326  1.00  0.00     0.093 A 
ATOM      2  N   UNL     1     116.982 156.364 109.537  1.00  0.00    -0.228 NA
ATOM      3  C   UNL     1     117.506 156.414 108.334  1.00  0.00     0.137 A 
ATOM      4  C   UNL     1     117.072 155.837 107.108  1.00  0.00     0.048 C 
ATOM      5  C   UNL     1     117.766 156.063 105.977  1.00  0.00     0.009 C 
ATOM      6  C   UNL     1     118.968 156.891 105.969  1.00  0.00    -0.034 C 
ATOM      7  C   UNL     1     119.671 157.096 104.665  1.00  0.00     0.046 C 
ATOM      8  C   UNL     1     119.383 157.427 107.133  1.00  0.00     0.096 C 
ATOM      9  N   UNL     1     118.668 157.182 108.309  1.00  0.00    -0.303 N 
ATOM     10  C   UNL     1     118.900 157.597 109.614  1.00  0.00     0.060 A 
ENDROOT
BRANCH   1  11
ATOM     11  C   UNL     1     117.516 157.343 111.732  1.00  0.00     0.002 A 
ATOM     12  C   UNL     1     116.976 157.696 114.474  1.00  0.00    -0.051 A 
ATOM     13  C   UNL     1     117.606 156.533 114.021  1.00  0.00     0.004 A 
ATOM     14  C   UNL     1     116.620 158.683 113.548  1.00  0.00     0.004 A 
ATOM     15  C   UNL     1     117.863 156.354 112.659  1.00  0.00     0.011 A 
ATOM     16  C   UNL     1     116.878 158.503 112.186  1.00  0.00     0.011 A 
ATOM     17  C   UNL     1     116.724 157.903 115.939  1.00  0.00     0.044 C 
ENDBRANCH   1  11
BRANCH  10  18
ATOM     18  C   UNL     1     120.109 158.373 110.034  1.00  0.00     0.157 C 
BRANCH  18  19
ATOM     19  C   UNL     1     119.925 159.874 109.807  1.00  0.00     0.228 C 
ATOM     20  O   UNL     1     118.987 160.451 110.365  1.00  0.00    -0.274 OA
ATOM     21  N   UNL     1     120.813 160.550 108.981  1.00  0.00    -0.348 N 
ATOM     22  C   UNL     1     121.961 159.952 108.318  1.00  0.00     0.146 C 
ATOM     23  C   UNL     1     120.546 161.941 108.650  1.00  0.00     0.146 C 
ENDBRANCH  18  19
ENDBRANCH  10  18
TORSDOF 3
ENDMDL
MODEL 4
REMARK VINA RESULT:    -8.540      3.090      6.485
REMARK INTER + INTRA:         -10.584
REMARK INTER:                  -9.968
REMARK INTRA:                  -0.617
REMARK UNBOUND:                -0.546
REMARK SMILES Cc1ccc(-c2nc3ccc(C)cn3c2CC(=O)N(C)C)cc1
REMARK SMILES IDX 6 1 7 2 8 3 9 4 10 5 11 6 12 7 13 8 14 9 15 10 5 11 2 12
REMARK SMILES IDX 3 13 23 14 4 15 22 16 1 17 16 18 17 19 18 20 19 21 20 22
REMARK SMILES IDX 21 23
REMARK H PARENT
ROOT
ATOM      1  C   UNL     1     117.696 159.039 111.197  1.00  0.00     0.093 A 
ATOM      2  N   UNL     1     117.278 160.345 111.271  1.00  0.00    -0.228 NA
ATOM      3  C   UNL     1     116.589 160.429 112.385  1.00  0.00     0.137 A 
ATOM      4  C   UNL     1     115.891 161.526 112.964  1.00  0.00     0.048 C 
ATOM      5  C   UNL     1     115.215 161.359 114.116  1.00  0.00     0.009 C 
ATOM      6  C   UNL     1     115.174 160.070 114.799  1.00  0.00    -0.034 C 
ATOM      7  C   UNL     1     114.390 159.972 116.069  1.00  0.00     0.046 C 
ATOM      8  C   UNL     1     115.845 159.036 114.255  1.00  0.00     0.096 C 
ATOM      9  N   UNL     1     116.557 159.214 113.065  1.00  0.00    -0.303 N 
ATOM     10  C   UNL     1     117.330 158.325 112.330  1.00  0.00     0.060 A 
ENDROOT
BRANCH   1  11
ATOM     11  C   UNL     1     118.466 158.555 110.067  1.00  0.00     0.002 A 
ATOM     12  C   UNL     1     119.996 157.663 107.876  1.00  0.00    -0.051 A 
ATOM     13  C   UNL     1     120.430 158.745 108.650  1.00  0.00     0.004 A 
ATOM     14  C   UNL     1     118.793 157.028 108.208  1.00  0.00     0.004 A 
ATOM     15  C   UNL     1     119.664 159.194 109.728  1.00  0.00     0.011 A 
ATOM     16  C   UNL     1     118.029 157.478 109.288  1.00  0.00     0.011 A 
ATOM     17  C   UNL     1     120.831 157.162 106.735  1.00  0.00     0.044 C 
ENDBRANCH   1  11
BRANCH  10  18
ATOM     18  C   UNL     1     117.628 156.926 112.771  1.00  0.00     0.157 C 
BRANCH  18  19
ATOM     19  C   UNL     1     116.361 156.074 112.847  1.00  0.00     0.228 C 
ATOM     20  O   UNL     1     115.669 155.941 111.833  1.00  0.00    -0.274 OA
ATOM     21  N   UNL     1     116.018 155.474 114.051  1.00  0.00    -0.348 N 
ATOM     22  C   UNL     1     116.796 155.550 115.277  1.00  0.00     0.146 C 
ATOM     23  C   UNL     1     114.738 154.791 114.157  1.00  0.00     0.146 C 
ENDBRANCH  18  19
ENDBRANCH  10  18
TORSDOF 3
ENDMDL
MODEL 5
REMARK VINA RESULT:    -8.520      2.478      5.269
REMARK INTER + INTRA:         -10.560
REMARK INTER:                  -9.842
REMARK INTRA:                  -0.718
REMARK UNBOUND:                -0.546
REMARK SMILES Cc1ccc(-c2nc3ccc(C)cn3c2CC(=O)N(C)C)cc1
REMARK SMILES IDX 6 1 7 2 8 3 9 4 10 5 11 6 12 7 13 8 14 9 15 10 5 11 2 12
REMARK SMILES IDX 3 13 23 14 4 15 22 16 1 17 16 18 17 19 18 20 19 21 20 22
REMARK SMILES IDX 21 23
REMARK H PARENT
ROOT
ATOM      1  C   UNL     1     118.644 157.850 110.763  1.00  0.00     0.093 A 
ATOM      2  N   UNL     1     119.340 158.954 110.336  1.00  0.00    -0.228 NA
ATOM      3  C   UNL     1     119.717 158.677 109.109  1.00  0.00     0.137 A 
ATOM      4  C   UNL     1     120.492 159.431 108.184  1.00  0.00     0.048 C 
ATOM      5  C   UNL     1     120.787 158.914 106.976  1.00  0.00     0.009 C 
ATOM      6  C   UNL     1     120.328 157.586 106.580  1.00  0.00    -0.034 C 
ATOM      7  C   UNL     1     120.709 157.087 105.223  1.00  0.00     0.046 C 
ATOM      8  C   UNL     1     119.584 156.880 107.454  1.00  0.00     0.096 C 
ATOM      9  N   UNL     1     119.270 157.422 108.703  1.00  0.00    -0.303 N 
ATOM     10  C   UNL     1     118.517 156.909 109.751  1.00  0.00     0.060 A 
ENDROOT
BRANCH   1  11
ATOM     11  C   UNL     1     118.095 157.776 112.104  1.00  0.00     0.002 A 
ATOM     12  C   UNL     1     117.004 157.682 114.699  1.00  0.00    -0.051 A 
ATOM     13  C   UNL     1     116.591 158.663 113.792  1.00  0.00     0.004 A 
ATOM     14  C   UNL     1     117.966 156.746 114.299  1.00  0.00     0.004 A 
ATOM     15  C   UNL     1     117.142 158.716 112.508  1.00  0.00     0.011 A 
ATOM     16  C   UNL     1     118.515 156.800 113.014  1.00  0.00     0.011 A 
ATOM     17  C   UNL     1     116.394 157.607 116.067  1.00  0.00     0.044 C 
ENDBRANCH   1  11
BRANCH  10  18
ATOM     18  C   UNL     1     117.777 155.609 109.680  1.00  0.00     0.157 C 
BRANCH  18  19
ATOM     19  C   UNL     1     116.263 155.821 109.656  1.00  0.00     0.228 C 
ATOM     20  O   UNL     1     115.690 156.147 110.700  1.00  0.00    -0.274 OA
ATOM     21  N   UNL     1     115.571 155.641 108.467  1.00  0.00    -0.348 N 
ATOM     22  C   UNL     1     116.175 155.295 107.190  1.00  0.00     0.146 C 
ATOM     23  C   UNL     1     114.117 155.697 108.483  1.00  0.00     0.146 C 
ENDBRANCH  18  19
ENDBRANCH  10  18
TORSDOF 3
ENDMDL
MODEL 6
REMARK VINA RESULT:    -8.497      1.931      3.972
REMARK INTER + INTRA:         -10.534
REMARK INTER:                  -9.683
REMARK INTRA:                  -0.851
REMARK UNBOUND:                -0.546
REMARK SMILES Cc1ccc(-c2nc3ccc(C)cn3c2CC(=O)N(C)C)cc1
REMARK SMILES IDX 6 1 7 2 8 3 9 4 10 5 11 6 12 7 13 8 14 9 15 10 5 11 2 12
REMARK SMILES IDX 3 13 23 14 4 15 22 16 1 17 16 18 17 19 18 20 19 21 20 22
REMARK SMILES IDX 21 23
REMARK H PARENT
ROOT
ATOM      1  C   UNL     1     119.071 158.986 110.054  1.00  0.00     0.093 A 
ATOM      2  N   UNL     1     119.128 160.316 110.393  1.00  0.00    -0.228 NA
ATOM      3  C   UNL     1     120.001 160.849 109.570  1.00  0.00     0.137 A 
ATOM      4  C   UNL     1     120.490 162.182 109.472  1.00  0.00     0.048 C 
ATOM      5  C   UNL     1     121.427 162.488 108.556  1.00  0.00     0.009 C 
ATOM      6  C   UNL     1     121.964 161.481 107.645  1.00  0.00    -0.034 C 
ATOM      7  C   UNL     1     123.009 161.907 106.664  1.00  0.00     0.046 C 
ATOM      8  C   UNL     1     121.491 160.223 107.732  1.00  0.00     0.096 C 
ATOM      9  N   UNL     1     120.509 159.909 108.677  1.00  0.00    -0.303 N 
ATOM     10  C   UNL     1     119.859 158.712 108.945  1.00  0.00     0.060 A 
ENDROOT
BRANCH   1  11
ATOM     11  C   UNL     1     118.225 158.058 110.781  1.00  0.00     0.002 A 
ATOM     12  C   UNL     1     116.624 156.249 112.230  1.00  0.00    -0.051 A 
ATOM     13  C   UNL     1     117.816 156.736 112.777  1.00  0.00     0.004 A 
ATOM     14  C   UNL     1     116.237 156.675 110.953  1.00  0.00     0.004 A 
ATOM     15  C   UNL     1     118.615 157.624 112.052  1.00  0.00     0.011 A 
ATOM     16  C   UNL     1     117.037 157.564 110.230  1.00  0.00     0.011 A 
ATOM     17  C   UNL     1     115.751 155.317 113.017  1.00  0.00     0.044 C 
ENDBRANCH   1  11
BRANCH  10  18
ATOM     18  C   UNL     1     120.054 157.465 108.140  1.00  0.00     0.157 C 
BRANCH  18  19
ATOM     19  C   UNL     1     118.874 157.207 107.203  1.00  0.00     0.228 C 
ATOM     20  O   UNL     1     118.581 158.062 106.362  1.00  0.00    -0.274 OA
ATOM     21  N   UNL     1     118.160 156.022 107.320  1.00  0.00    -0.348 N 
ATOM     22  C   UNL     1     118.463 154.951 108.256  1.00  0.00     0.146 C 
ATOM     23  C   UNL     1     116.952 155.847 106.530  1.00  0.00     0.146 C 
ENDBRANCH  18  19
ENDBRANCH  10  18
TORSDOF 3
ENDMDL
MODEL 7
REMARK VINA RESULT:    -8.430      2.679      7.451
REMARK INTER + INTRA:         -10.455
REMARK INTER:                 -10.073
REMARK INTRA:                  -0.383
REMARK UNBOUND:                -0.546
REMARK SMILES Cc1ccc(-c2nc3ccc(C)cn3c2CC(=O)N(C)C)cc1
REMARK SMILES IDX 6 1 7 2 8 3 9 4 10 5 11 6 12 7 13 8 14 9 15 10 5 11 2 12
REMARK SMILES IDX 3 13 23 14 4 15 22 16 1 17 16 18 17 19 18 20 19 21 20 22
REMARK SMILES IDX 21 23
REMARK H PARENT
ROOT
ATOM      1  C   UNL     1     117.652 158.280 111.713  1.00  0.00     0.093 A 
ATOM      2  N   UNL     1     117.091 158.847 112.831  1.00  0.00    -0.228 NA
ATOM      3  C   UNL     1     116.286 157.932 113.319  1.00  0.00     0.137 A 
ATOM      4  C   UNL     1     115.418 157.967 114.447  1.00  0.00     0.048 C 
ATOM      5  C   UNL     1     114.648 156.901 114.735  1.00  0.00     0.009 C 
ATOM      6  C   UNL     1     114.677 155.693 113.916  1.00  0.00    -0.034 C 
ATOM      7  C   UNL     1     113.781 154.560 114.304  1.00  0.00     0.046 C 
ATOM      8  C   UNL     1     115.508 155.659 112.856  1.00  0.00     0.096 C 
ATOM      9  N   UNL     1     116.315 156.762 112.565  1.00  0.00    -0.303 N 
ATOM     10  C   UNL     1     117.251 156.960 111.558  1.00  0.00     0.060 A 
ENDROOT
BRANCH   1  11
ATOM     11  C   UNL     1     118.583 159.017 110.879  1.00  0.00     0.002 A 
ATOM     12  C   UNL     1     120.419 160.399 109.250  1.00  0.00    -0.051 A 
ATOM     13  C   UNL     1     120.433 159.001 109.305  1.00  0.00     0.004 A 
ATOM     14  C   UNL     1     119.479 161.101 110.014  1.00  0.00     0.004 A 
ATOM     15  C   UNL     1     119.530 158.317 110.123  1.00  0.00     0.011 A 
ATOM     16  C   UNL     1     118.575 160.415 110.831  1.00  0.00     0.011 A 
ATOM     17  C   UNL     1     121.370 161.134 108.352  1.00  0.00     0.044 C 
ENDBRANCH   1  11
BRANCH  10  18
ATOM     18  C   UNL     1     117.651 155.900 110.580  1.00  0.00     0.157 C 
BRANCH  18  19
ATOM     19  C   UNL     1     116.796 155.947 109.314  1.00  0.00     0.228 C 
ATOM     20  O   UNL     1     115.580 156.138 109.421  1.00  0.00    -0.274 OA
ATOM     21  N   UNL     1     117.402 155.771 108.077  1.00  0.00    -0.348 N 
ATOM     22  C   UNL     1     118.828 155.578 107.864  1.00  0.00     0.146 C 
ATOM     23  C   UNL     1     116.566 155.667 106.892  1.00  0.00     0.146 C 
ENDBRANCH  18  19
ENDBRANCH  10  18
TORSDOF 3
ENDMDL
MODEL 8
REMARK VINA RESULT:    -8.423      1.337      5.988
REMARK INTER + INTRA:         -10.447
REMARK INTER:                 -10.257
REMARK INTRA:                  -0.189
REMARK UNBOUND:                -0.546
REMARK SMILES Cc1ccc(-c2nc3ccc(C)cn3c2CC(=O)N(C)C)cc1
REMARK SMILES IDX 6 1 7 2 8 3 9 4 10 5 11 6 12 7 13 8 14 9 15 10 5 11 2 12
REMARK SMILES IDX 3 13 23 14 4 15 22 16 1 17 16 18 17 19 18 20 19 21 20 22
REMARK SMILES IDX 21 23
REMARK H PARENT
ROOT
ATOM      1  C   UNL     1     119.482 158.226 107.524  1.00  0.00     0.093 A 
ATOM      2  N   UNL     1     119.405 157.389 106.438  1.00  0.00    -0.228 NA
ATOM      3  C   UNL     1     118.329 156.664 106.631  1.00  0.00     0.137 A 
ATOM      4  C   UNL     1     117.767 155.612 105.854  1.00  0.00     0.048 C 
ATOM      5  C   UNL     1     116.657 154.981 106.281  1.00  0.00     0.009 C 
ATOM      6  C   UNL     1     116.002 155.347 107.533  1.00  0.00    -0.034 C 
ATOM      7  C   UNL     1     114.779 154.587 107.935  1.00  0.00     0.046 C 
ATOM      8  C   UNL     1     116.530 156.351 108.260  1.00  0.00     0.096 C 
ATOM      9  N   UNL     1     117.675 157.013 107.810  1.00  0.00    -0.303 N 
ATOM     10  C   UNL     1     118.385 158.073 108.360  1.00  0.00     0.060 A 
ENDROOT
BRANCH   1  11
ATOM     11  C   UNL     1     120.578 159.164 107.678  1.00  0.00     0.002 A 
ATOM     12  C   UNL     1     122.689 160.997 108.031  1.00  0.00    -0.051 A 
ATOM     13  C   UNL     1     121.898 160.608 109.118  1.00  0.00     0.004 A 
ATOM     14  C   UNL     1     122.418 160.460 106.766  1.00  0.00     0.004 A 
ATOM     15  C   UNL     1     120.844 159.709 108.939  1.00  0.00     0.011 A 
ATOM     16  C   UNL     1     121.364 159.559 106.589  1.00  0.00     0.011 A 
ATOM     17  C   UNL     1     123.838 161.941 108.225  1.00  0.00     0.044 C 
ENDBRANCH   1  11
BRANCH  10  18
ATOM     18  C   UNL     1     117.956 158.806 109.593  1.00  0.00     0.157 C 
BRANCH  18  19
ATOM     19  C   UNL     1     118.159 157.963 110.852  1.00  0.00     0.228 C 
ATOM     20  O   UNL     1     118.848 156.940 110.781  1.00  0.00    -0.274 OA
ATOM     21  N   UNL     1     117.565 158.364 112.041  1.00  0.00    -0.348 N 
ATOM     22  C   UNL     1     116.773 159.571 112.216  1.00  0.00     0.146 C 
ATOM     23  C   UNL     1     117.637 157.483 113.196  1.00  0.00     0.146 C 
ENDBRANCH  18  19
ENDBRANCH  10  18
TORSDOF 3
ENDMDL
MODEL 9
REMARK VINA RESULT:    -8.198      4.559      8.404
REMARK INTER + INTRA:         -10.182
REMARK INTER:                  -9.670
REMARK INTRA:                  -0.512
REMARK UNBOUND:                -0.546
REMARK SMILES Cc1ccc(-c2nc3ccc(C)cn3c2CC(=O)N(C)C)cc1
REMARK SMILES IDX 6 1 7 2 8 3 9 4 10 5 11 6 12 7 13 8 14 9 15 10 5 11 2 12
REMARK SMILES IDX 3 13 23 14 4 15 22 16 1 17 16 18 17 19 18 20 19 21 20 22
REMARK SMILES IDX 21 23
REMARK H PARENT
ROOT
ATOM      1  C   UNL     1     117.382 155.856 113.674  1.00  0.00     0.093 A 
ATOM      2  N   UNL     1     117.501 154.525 113.989  1.00  0.00    -0.228 NA
ATOM      3  C   UNL     1     117.100 154.424 115.235  1.00  0.00     0.137 A 
ATOM      4  C   UNL     1     117.034 153.295 116.100  1.00  0.00     0.048 C 
ATOM      5  C   UNL     1     116.615 153.446 117.370  1.00  0.00     0.009 C 
ATOM      6  C   UNL     1     116.219 154.749 117.896  1.00  0.00    -0.034 C 
ATOM      7  C   UNL     1     115.776 154.826 119.322  1.00  0.00     0.046 C 
ATOM      8  C   UNL     1     116.271 155.813 117.071  1.00  0.00     0.096 C 
ATOM      9  N   UNL     1     116.696 155.653 115.749  1.00  0.00    -0.303 N 
ATOM     10  C   UNL     1     116.815 156.575 114.718  1.00  0.00     0.060 A 
ENDROOT
BRANCH   1  11
ATOM     11  C   UNL     1     117.771 156.361 112.371  1.00  0.00     0.002 A 
ATOM     12  C   UNL     1     118.511 157.292 109.817  1.00  0.00    -0.051 A 
ATOM     13  C   UNL     1     117.799 156.096 109.956  1.00  0.00     0.004 A 
ATOM     14  C   UNL     1     118.849 158.021 110.964  1.00  0.00     0.004 A 
ATOM     15  C   UNL     1     117.443 155.629 111.225  1.00  0.00     0.011 A 
ATOM     16  C   UNL     1     118.491 157.553 112.232  1.00  0.00     0.011 A 
ATOM     17  C   UNL     1     118.870 157.809 108.455  1.00  0.00     0.044 C 
ENDBRANCH   1  11
BRANCH  10  18
ATOM     18  C   UNL     1     116.391 158.006 114.832  1.00  0.00     0.157 C 
BRANCH  18  19
ATOM     19  C   UNL     1     114.877 158.160 114.690  1.00  0.00     0.228 C 
ATOM     20  O   UNL     1     114.186 157.149 114.526  1.00  0.00    -0.274 OA
ATOM     21  N   UNL     1     114.315 159.429 114.745  1.00  0.00    -0.348 N 
ATOM     22  C   UNL     1     115.052 160.662 114.971  1.00  0.00     0.146 C 
ATOM     23  C   UNL     1     112.897 159.583 114.460  1.00  0.00     0.146 C 
ENDBRANCH  18  19
ENDBRANCH  10  18
TORSDOF 3
ENDMDL
