MODEL 1
REMARK VINA RESULT:   -10.124      0.000      0.000
REMARK INTER + INTRA:         -10.453
REMARK INTER:                 -10.716
REMARK INTRA:                   0.263
REMARK UNBOUND:                 0.263
REMARK SMILES CN1C(=O)CN=C(c2ccccc2)c2cc(Cl)ccc21
REMARK SMILES IDX 1 1 2 2 3 3 4 4 5 5 6 6 7 7 14 8 15 9 16 10 17 11 18 12
REMARK SMILES IDX 19 13 20 14 8 15 9 16 13 17 10 18 12 19 11 20
REMARK H PARENT
ROOT
ATOM      1  C   UNL     1     116.920 160.683 111.922  1.00  0.00     0.153 C 
ATOM      2  N   UNL     1     117.621 159.438 111.636  1.00  0.00    -0.313 N 
ATOM      3  C   UNL     1     117.338 158.348 112.468  1.00  0.00     0.248 C 
ATOM      4  O   UNL     1     116.487 158.402 113.361  1.00  0.00    -0.272 OA
ATOM      5  C   UNL     1     118.193 157.101 112.292  1.00  0.00     0.243 C 
ATOM      6  N   UNL     1     117.814 156.436 111.050  1.00  0.00    -0.274 NA
ATOM      7  C   UNL     1     118.129 157.008 109.937  1.00  0.00     0.075 C 
ATOM      8  C   UNL     1     118.917 158.273 109.840  1.00  0.00     0.026 A 
ATOM      9  C   UNL     1     119.962 158.299 108.896  1.00  0.00     0.033 A 
ATOM     10  C   UNL     1     120.664 159.475 108.663  1.00  0.00     0.041 A 
ATOM     11  Cl  UNL     1     121.927 159.504 107.497  1.00  0.00    -0.084 Cl
ATOM     12  C   UNL     1     120.341 160.630 109.362  1.00  0.00     0.023 A 
ATOM     13  C   UNL     1     119.322 160.600 110.320  1.00  0.00     0.028 A 
ATOM     14  C   UNL     1     118.609 159.419 110.601  1.00  0.00     0.053 A 
ENDROOT
BRANCH   7  15
ATOM     15  C   UNL     1     117.674 156.344 108.673  1.00  0.00     0.000 A 
ATOM     16  C   UNL     1     116.371 155.836 108.604  1.00  0.00     0.010 A 
ATOM     17  C   UNL     1     118.514 156.251 107.557  1.00  0.00     0.010 A 
ATOM     18  C   UNL     1     115.922 155.214 107.438  1.00  0.00     0.001 A 
ATOM     19  C   UNL     1     118.061 155.628 106.392  1.00  0.00     0.001 A 
ATOM     20  C   UNL     1     116.769 155.106 106.335  1.00  0.00     0.000 A 
ENDBRANCH   7  15
TORSDOF 1
ENDMDL
MODEL 2
REMARK VINA RESULT:    -9.397      3.007      5.975
REMARK INTER + INTRA:          -9.684
REMARK INTER:                  -9.938
REMARK INTRA:                   0.254
REMARK UNBOUND:                 0.263
REMARK SMILES CN1C(=O)CN=C(c2ccccc2)c2cc(Cl)ccc21
REMARK SMILES IDX 1 1 2 2 3 3 4 4 5 5 6 6 7 7 14 8 15 9 16 10 17 11 18 12
REMARK SMILES IDX 19 13 20 14 8 15 9 16 13 17 10 18 12 19 11 20
REMARK H PARENT
ROOT
ATOM      1  C   UNL     1     117.826 157.034 106.777  1.00  0.00     0.153 C 
ATOM      2  N   UNL     1     118.568 157.619 107.886  1.00  0.00    -0.313 N 
ATOM      3  C   UNL     1     119.582 158.527 107.558  1.00  0.00     0.248 C 
ATOM      4  O   UNL     1     119.803 158.879 106.395  1.00  0.00    -0.272 OA
ATOM      5  C   UNL     1     120.478 159.004 108.692  1.00  0.00     0.243 C 
ATOM      6  N   UNL     1     119.727 159.927 109.536  1.00  0.00    -0.274 NA
ATOM      7  C   UNL     1     118.781 159.443 110.269  1.00  0.00     0.075 C 
ATOM      8  C   UNL     1     118.453 157.989 110.359  1.00  0.00     0.026 A 
ATOM      9  C   UNL     1     118.247 157.463 111.649  1.00  0.00     0.033 A 
ATOM     10  C   UNL     1     117.824 156.149 111.809  1.00  0.00     0.041 A 
ATOM     11  Cl  UNL     1     117.558 155.519 113.386  1.00  0.00    -0.084 Cl
ATOM     12  C   UNL     1     117.606 155.347 110.697  1.00  0.00     0.023 A 
ATOM     13  C   UNL     1     117.836 155.858 109.416  1.00  0.00     0.028 A 
ATOM     14  C   UNL     1     118.291 157.176 109.218  1.00  0.00     0.053 A 
ENDROOT
BRANCH   7  15
ATOM     15  C   UNL     1     117.976 160.414 111.078  1.00  0.00     0.000 A 
ATOM     16  C   UNL     1     118.175 161.787 110.887  1.00  0.00     0.010 A 
ATOM     17  C   UNL     1     117.013 159.974 111.995  1.00  0.00     0.010 A 
ATOM     18  C   UNL     1     117.438 162.712 111.627  1.00  0.00     0.001 A 
ATOM     19  C   UNL     1     116.278 160.903 112.734  1.00  0.00     0.001 A 
ATOM     20  C   UNL     1     116.494 162.269 112.554  1.00  0.00     0.000 A 
ENDBRANCH   7  15
TORSDOF 1
ENDMDL
MODEL 3
REMARK VINA RESULT:    -9.234      2.556      3.376
REMARK INTER + INTRA:          -9.511
REMARK INTER:                  -9.034
REMARK INTRA:                  -0.477
REMARK UNBOUND:                 0.263
REMARK SMILES CN1C(=O)CN=C(c2ccccc2)c2cc(Cl)ccc21
REMARK SMILES IDX 1 1 2 2 3 3 4 4 5 5 6 6 7 7 14 8 15 9 16 10 17 11 18 12
REMARK SMILES IDX 19 13 20 14 8 15 9 16 13 17 10 18 12 19 11 20
REMARK H PARENT
ROOT
ATOM      1  C   UNL     1     114.507 156.808 114.603  1.00  0.00     0.153 C 
ATOM      2  N   UNL     1     115.764 156.580 113.903  1.00  0.00    -0.313 N 
ATOM      3  C   UNL     1     116.393 155.347 114.118  1.00  0.00     0.248 C 
ATOM      4  O   UNL     1     115.885 154.459 114.809  1.00  0.00    -0.272 OA
ATOM      5  C   UNL     1     117.788 155.171 113.537  1.00  0.00     0.243 C 
ATOM      6  N   UNL     1     117.686 155.029 112.088  1.00  0.00    -0.274 NA
ATOM      7  C   UNL     1     117.354 156.070 111.401  1.00  0.00     0.075 C 
ATOM      8  C   UNL     1     117.136 157.425 111.988  1.00  0.00     0.026 A 
ATOM      9  C   UNL     1     117.730 158.512 111.316  1.00  0.00     0.033 A 
ATOM     10  C   UNL     1     117.477 159.813 111.731  1.00  0.00     0.041 A 
ATOM     11  Cl  UNL     1     118.191 161.135 110.896  1.00  0.00    -0.084 Cl
ATOM     12  C   UNL     1     116.639 160.050 112.812  1.00  0.00     0.023 A 
ATOM     13  C   UNL     1     116.069 158.972 113.499  1.00  0.00     0.028 A 
ATOM     14  C   UNL     1     116.326 157.639 113.122  1.00  0.00     0.053 A 
ENDROOT
BRANCH   7  15
ATOM     15  C   UNL     1     117.189 155.889 109.922  1.00  0.00     0.000 A 
ATOM     16  C   UNL     1     115.915 156.025 109.359  1.00  0.00     0.010 A 
ATOM     17  C   UNL     1     118.288 155.620 109.096  1.00  0.00     0.010 A 
ATOM     18  C   UNL     1     115.735 155.862 107.985  1.00  0.00     0.001 A 
ATOM     19  C   UNL     1     118.103 155.457 107.722  1.00  0.00     0.001 A 
ATOM     20  C   UNL     1     116.828 155.574 107.168  1.00  0.00     0.000 A 
ENDBRANCH   7  15
TORSDOF 1
ENDMDL
MODEL 4
REMARK VINA RESULT:    -8.593      1.766      4.568
REMARK INTER + INTRA:          -8.832
REMARK INTER:                  -9.105
REMARK INTRA:                   0.273
REMARK UNBOUND:                 0.263
REMARK SMILES CN1C(=O)CN=C(c2ccccc2)c2cc(Cl)ccc21
REMARK SMILES IDX 1 1 2 2 3 3 4 4 5 5 6 6 7 7 14 8 15 9 16 10 17 11 18 12
REMARK SMILES IDX 19 13 20 14 8 15 9 16 13 17 10 18 12 19 11 20
REMARK H PARENT
ROOT
ATOM      1  C   UNL     1     117.817 156.012 112.777  1.00  0.00     0.153 C 
ATOM      2  N   UNL     1     117.635 157.097 111.821  1.00  0.00    -0.313 N 
ATOM      3  C   UNL     1     117.360 158.364 112.348  1.00  0.00     0.248 C 
ATOM      4  O   UNL     1     117.339 158.584 113.563  1.00  0.00    -0.272 OA
ATOM      5  C   UNL     1     116.992 159.461 111.359  1.00  0.00     0.243 C 
ATOM      6  N   UNL     1     118.188 159.865 110.629  1.00  0.00    -0.274 NA
ATOM      7  C   UNL     1     118.684 159.035 109.774  1.00  0.00     0.075 C 
ATOM      8  C   UNL     1     118.071 157.716 109.435  1.00  0.00     0.026 A 
ATOM      9  C   UNL     1     117.982 157.390 108.068  1.00  0.00     0.033 A 
ATOM     10  C   UNL     1     117.532 156.135 107.678  1.00  0.00     0.041 A 
ATOM     11  Cl  UNL     1     117.442 155.737 106.008  1.00  0.00    -0.084 Cl
ATOM     12  C   UNL     1     117.167 155.196 108.633  1.00  0.00     0.023 A 
ATOM     13  C   UNL     1     117.229 155.527 109.991  1.00  0.00     0.028 A 
ATOM     14  C   UNL     1     117.654 156.799 110.421  1.00  0.00     0.053 A 
ENDROOT
BRANCH   7  15
ATOM     15  C   UNL     1     119.951 159.440 109.083  1.00  0.00     0.000 A 
ATOM     16  C   UNL     1     120.518 158.574 108.141  1.00  0.00     0.010 A 
ATOM     17  C   UNL     1     120.555 160.677 109.339  1.00  0.00     0.010 A 
ATOM     18  C   UNL     1     121.696 158.928 107.483  1.00  0.00     0.001 A 
ATOM     19  C   UNL     1     121.735 161.028 108.679  1.00  0.00     0.001 A 
ATOM     20  C   UNL     1     122.307 160.152 107.756  1.00  0.00     0.000 A 
ENDBRANCH   7  15
TORSDOF 1
ENDMDL
MODEL 5
REMARK VINA RESULT:    -8.289      3.121      5.022
REMARK INTER + INTRA:          -8.511
REMARK INTER:                  -8.088
REMARK INTRA:                  -0.424
REMARK UNBOUND:                 0.263
REMARK SMILES CN1C(=O)CN=C(c2ccccc2)c2cc(Cl)ccc21
REMARK SMILES IDX 1 1 2 2 3 3 4 4 5 5 6 6 7 7 14 8 15 9 16 10 17 11 18 12
REMARK SMILES IDX 19 13 20 14 8 15 9 16 13 17 10 18 12 19 11 20
REMARK H PARENT
ROOT
ATOM      1  C   UNL     1     120.373 159.214 109.481  1.00  0.00     0.153 C 
ATOM      2  N   UNL     1     119.023 158.689 109.637  1.00  0.00    -0.313 N 
ATOM      3  C   UNL     1     118.640 157.661 108.767  1.00  0.00     0.248 C 
ATOM      4  O   UNL     1     119.419 157.165 107.948  1.00  0.00    -0.272 OA
ATOM      5  C   UNL     1     117.181 157.232 108.802  1.00  0.00     0.243 C 
ATOM      6  N   UNL     1     116.934 156.481 110.029  1.00  0.00    -0.274 NA
ATOM      7  C   UNL     1     116.941 157.128 111.145  1.00  0.00     0.075 C 
ATOM      8  C   UNL     1     117.115 158.607 111.255  1.00  0.00     0.026 A 
ATOM      9  C   UNL     1     116.231 159.289 112.114  1.00  0.00     0.033 A 
ATOM     10  C   UNL     1     116.403 160.646 112.359  1.00  0.00     0.041 A 
ATOM     11  Cl  UNL     1     115.331 161.468 113.422  1.00  0.00    -0.084 Cl
ATOM     12  C   UNL     1     117.445 161.337 111.757  1.00  0.00     0.023 A 
ATOM     13  C   UNL     1     118.308 160.669 110.882  1.00  0.00     0.028 A 
ATOM     14  C   UNL     1     118.146 159.300 110.589  1.00  0.00     0.053 A 
ENDROOT
BRANCH   7  15
ATOM     15  C   UNL     1     116.753 156.330 112.400  1.00  0.00     0.000 A 
ATOM     16  C   UNL     1     115.466 155.903 112.747  1.00  0.00     0.010 A 
ATOM     17  C   UNL     1     117.841 155.980 113.208  1.00  0.00     0.010 A 
ATOM     18  C   UNL     1     115.264 155.158 113.910  1.00  0.00     0.001 A 
ATOM     19  C   UNL     1     117.635 155.234 114.371  1.00  0.00     0.001 A 
ATOM     20  C   UNL     1     116.349 154.828 114.723  1.00  0.00     0.000 A 
ENDBRANCH   7  15
TORSDOF 1
ENDMDL
MODEL 6
REMARK VINA RESULT:    -7.697      3.060      4.579
REMARK INTER + INTRA:          -7.885
REMARK INTER:                  -7.785
REMARK INTRA:                  -0.100
REMARK UNBOUND:                 0.263
REMARK SMILES CN1C(=O)CN=C(c2ccccc2)c2cc(Cl)ccc21
REMARK SMILES IDX 1 1 2 2 3 3 4 4 5 5 6 6 7 7 14 8 15 9 16 10 17 11 18 12
REMARK SMILES IDX 19 13 20 14 8 15 9 16 13 17 10 18 12 19 11 20
REMARK H PARENT
ROOT
ATOM      1  C   UNL     1     113.241 158.030 115.147  1.00  0.00     0.153 C 
ATOM      2  N   UNL     1     114.679 158.023 114.909  1.00  0.00    -0.313 N 
ATOM      3  C   UNL     1     115.421 157.028 115.556  1.00  0.00     0.248 C 
ATOM      4  O   UNL     1     114.891 156.149 116.242  1.00  0.00    -0.272 OA
ATOM      5  C   UNL     1     116.937 157.122 115.460  1.00  0.00     0.243 C 
ATOM      6  N   UNL     1     117.351 156.755 114.109  1.00  0.00    -0.274 NA
ATOM      7  C   UNL     1     117.076 157.573 113.150  1.00  0.00     0.075 C 
ATOM      8  C   UNL     1     116.423 158.902 113.344  1.00  0.00     0.026 A 
ATOM      9  C   UNL     1     116.989 159.994 112.659  1.00  0.00     0.033 A 
ATOM     10  C   UNL     1     116.371 161.238 112.695  1.00  0.00     0.041 A 
ATOM     11  Cl  UNL     1     117.059 162.563 111.842  1.00  0.00    -0.084 Cl
ATOM     12  C   UNL     1     115.192 161.411 113.408  1.00  0.00     0.023 A 
ATOM     13  C   UNL     1     114.642 160.334 114.111  1.00  0.00     0.028 A 
ATOM     14  C   UNL     1     115.257 159.067 114.119  1.00  0.00     0.053 A 
ENDROOT
BRANCH   7  15
ATOM     15  C   UNL     1     117.450 157.150 111.761  1.00  0.00     0.000 A 
ATOM     16  C   UNL     1     116.697 156.153 111.129  1.00  0.00     0.010 A 
ATOM     17  C   UNL     1     118.514 157.753 111.079  1.00  0.00     0.010 A 
ATOM     18  C   UNL     1     117.024 155.742 109.837  1.00  0.00     0.001 A 
ATOM     19  C   UNL     1     118.838 157.338 109.786  1.00  0.00     0.001 A 
ATOM     20  C   UNL     1     118.097 156.331 109.168  1.00  0.00     0.000 A 
ENDBRANCH   7  15
TORSDOF 1
ENDMDL
MODEL 7
REMARK VINA RESULT:    -7.627      2.507      4.921
REMARK INTER + INTRA:          -7.810
REMARK INTER:                  -8.083
REMARK INTRA:                   0.273
REMARK UNBOUND:                 0.263
REMARK SMILES CN1C(=O)CN=C(c2ccccc2)c2cc(Cl)ccc21
REMARK SMILES IDX 1 1 2 2 3 3 4 4 5 5 6 6 7 7 14 8 15 9 16 10 17 11 18 12
REMARK SMILES IDX 19 13 20 14 8 15 9 16 13 17 10 18 12 19 11 20
REMARK H PARENT
ROOT
ATOM      1  C   UNL     1     117.182 157.635 115.089  1.00  0.00     0.153 C 
ATOM      2  N   UNL     1     116.830 158.268 113.825  1.00  0.00    -0.313 N 
ATOM      3  C   UNL     1     116.140 159.484 113.898  1.00  0.00     0.248 C 
ATOM      4  O   UNL     1     115.897 160.042 114.972  1.00  0.00    -0.272 OA
ATOM      5  C   UNL     1     115.612 160.061 112.593  1.00  0.00     0.243 C 
ATOM      6  N   UNL     1     116.732 160.577 111.812  1.00  0.00    -0.274 NA
ATOM      7  C   UNL     1     117.551 159.725 111.294  1.00  0.00     0.075 C 
ATOM      8  C   UNL     1     117.387 158.244 111.385  1.00  0.00     0.026 A 
ATOM      9  C   UNL     1     117.576 157.510 110.198  1.00  0.00     0.033 A 
ATOM     10  C   UNL     1     117.555 156.121 110.224  1.00  0.00     0.041 A 
ATOM     11  Cl  UNL     1     117.804 155.231 108.774  1.00  0.00    -0.084 Cl
ATOM     12  C   UNL     1     117.346 155.449 111.421  1.00  0.00     0.023 A 
ATOM     13  C   UNL     1     117.131 156.175 112.597  1.00  0.00     0.028 A 
ATOM     14  C   UNL     1     117.118 157.584 112.601  1.00  0.00     0.053 A 
ENDROOT
BRANCH   7  15
ATOM     15  C   UNL     1     118.732 160.275 110.553  1.00  0.00     0.000 A 
ATOM     16  C   UNL     1     119.638 159.386 109.964  1.00  0.00     0.010 A 
ATOM     17  C   UNL     1     118.925 161.655 110.415  1.00  0.00     0.010 A 
ATOM     18  C   UNL     1     120.746 159.873 109.268  1.00  0.00     0.001 A 
ATOM     19  C   UNL     1     120.034 162.138 109.718  1.00  0.00     0.001 A 
ATOM     20  C   UNL     1     120.945 161.249 109.149  1.00  0.00     0.000 A 
ENDBRANCH   7  15
TORSDOF 1
ENDMDL
MODEL 8
REMARK VINA RESULT:    -7.258      4.199      6.610
REMARK INTER + INTRA:          -7.419
REMARK INTER:                  -7.673
REMARK INTRA:                   0.254
REMARK UNBOUND:                 0.263
REMARK SMILES CN1C(=O)CN=C(c2ccccc2)c2cc(Cl)ccc21
REMARK SMILES IDX 1 1 2 2 3 3 4 4 5 5 6 6 7 7 14 8 15 9 16 10 17 11 18 12
REMARK SMILES IDX 19 13 20 14 8 15 9 16 13 17 10 18 12 19 11 20
REMARK H PARENT
ROOT
ATOM      1  C   UNL     1     115.733 160.725 117.540  1.00  0.00     0.153 C 
ATOM      2  N   UNL     1     115.312 160.456 116.171  1.00  0.00    -0.313 N 
ATOM      3  C   UNL     1     114.943 161.562 115.395  1.00  0.00     0.248 C 
ATOM      4  O   UNL     1     115.031 162.721 115.813  1.00  0.00    -0.272 OA
ATOM      5  C   UNL     1     114.334 161.278 114.030  1.00  0.00     0.243 C 
ATOM      6  N   UNL     1     115.382 160.813 113.128  1.00  0.00    -0.274 NA
ATOM      7  C   UNL     1     115.878 159.639 113.332  1.00  0.00     0.075 C 
ATOM      8  C   UNL     1     115.399 158.700 114.390  1.00  0.00     0.026 A 
ATOM      9  C   UNL     1     115.198 157.360 114.007  1.00  0.00     0.033 A 
ATOM     10  C   UNL     1     114.867 156.403 114.958  1.00  0.00     0.041 A 
ATOM     11  Cl  UNL     1     114.640 154.766 114.485  1.00  0.00    -0.084 Cl
ATOM     12  C   UNL     1     114.730 156.763 116.291  1.00  0.00     0.023 A 
ATOM     13  C   UNL     1     114.902 158.098 116.671  1.00  0.00     0.028 A 
ATOM     14  C   UNL     1     115.211 159.099 115.729  1.00  0.00     0.053 A 
ENDROOT
BRANCH   7  15
ATOM     15  C   UNL     1     117.000 159.205 112.438  1.00  0.00     0.000 A 
ATOM     16  C   UNL     1     117.551 160.129 111.543  1.00  0.00     0.010 A 
ATOM     17  C   UNL     1     117.522 157.907 112.504  1.00  0.00     0.010 A 
ATOM     18  C   UNL     1     118.597 159.751 110.700  1.00  0.00     0.001 A 
ATOM     19  C   UNL     1     118.568 157.532 111.658  1.00  0.00     0.001 A 
ATOM     20  C   UNL     1     119.101 158.451 110.755  1.00  0.00     0.000 A 
ENDBRANCH   7  15
TORSDOF 1
ENDMDL
MODEL 9
REMARK VINA RESULT:    -6.658      4.184      6.341
REMARK INTER + INTRA:          -6.785
REMARK INTER:                  -7.110
REMARK INTRA:                   0.325
REMARK UNBOUND:                 0.263
REMARK SMILES CN1C(=O)CN=C(c2ccccc2)c2cc(Cl)ccc21
REMARK SMILES IDX 1 1 2 2 3 3 4 4 5 5 6 6 7 7 14 8 15 9 16 10 17 11 18 12
REMARK SMILES IDX 19 13 20 14 8 15 9 16 13 17 10 18 12 19 11 20
REMARK H PARENT
ROOT
ATOM      1  C   UNL     1     112.698 156.630 115.358  1.00  0.00     0.153 C 
ATOM      2  N   UNL     1     113.996 157.286 115.436  1.00  0.00    -0.313 N 
ATOM      3  C   UNL     1     115.030 156.570 116.052  1.00  0.00     0.248 C 
ATOM      4  O   UNL     1     114.884 155.412 116.452  1.00  0.00    -0.272 OA
ATOM      5  C   UNL     1     116.335 157.313 116.299  1.00  0.00     0.243 C 
ATOM      6  N   UNL     1     117.026 157.498 115.027  1.00  0.00    -0.274 NA
ATOM      7  C   UNL     1     116.522 158.331 114.181  1.00  0.00     0.075 C 
ATOM      8  C   UNL     1     115.316 159.170 114.449  1.00  0.00     0.026 A 
ATOM      9  C   UNL     1     115.396 160.530 114.093  1.00  0.00     0.033 A 
ATOM     10  C   UNL     1     114.279 161.348 114.202  1.00  0.00     0.041 A 
ATOM     11  Cl  UNL     1     114.379 163.004 113.750  1.00  0.00    -0.084 Cl
ATOM     12  C   UNL     1     113.077 160.830 114.665  1.00  0.00     0.023 A 
ATOM     13  C   UNL     1     113.001 159.485 115.045  1.00  0.00     0.028 A 
ATOM     14  C   UNL     1     114.122 158.635 114.974  1.00  0.00     0.053 A 
ENDROOT
BRANCH   7  15
ATOM     15  C   UNL     1     117.208 158.458 112.854  1.00  0.00     0.000 A 
ATOM     16  C   UNL     1     117.847 157.338 112.310  1.00  0.00     0.010 A 
ATOM     17  C   UNL     1     117.191 159.663 112.140  1.00  0.00     0.010 A 
ATOM     18  C   UNL     1     118.492 157.430 111.076  1.00  0.00     0.001 A 
ATOM     19  C   UNL     1     117.838 159.750 110.905  1.00  0.00     0.001 A 
ATOM     20  C   UNL     1     118.491 158.637 110.377  1.00  0.00     0.000 A 
ENDBRANCH   7  15
TORSDOF 1
ENDMDL
