MODEL 1
REMARK VINA RESULT:    -9.502      0.000      0.000
REMARK INTER + INTRA:         -10.997
REMARK INTER:                 -10.613
REMARK INTRA:                  -0.384
REMARK UNBOUND:                -0.384
REMARK SMILES O=C1CN=C(c2ccccc2Cl)c2cc([N+](=O)[O-])ccc2N1
REMARK SMILES IDX 1 1 2 2 3 3 4 4 5 5 13 6 14 7 15 8 19 9 20 10 21 11 22 12
REMARK SMILES IDX 6 14 7 15 11 16 8 17 10 18 9 19 12 20 16 21 17 22 18 23
REMARK H PARENT 22 13
ROOT
ATOM      1  O   UNL     1     117.049 161.736 111.590  1.00  0.00    -0.273 OA
ATOM      2  C   UNL     1     117.416 160.561 111.602  1.00  0.00     0.246 C 
ATOM      3  C   UNL     1     118.580 160.054 110.775  1.00  0.00     0.243 C 
ATOM      4  N   UNL     1     118.123 159.076 109.799  1.00  0.00    -0.274 NA
ATOM      5  C   UNL     1     117.714 157.923 110.199  1.00  0.00     0.076 C 
ATOM      6  C   UNL     1     117.577 157.473 111.618  1.00  0.00     0.031 A 
ATOM      7  C   UNL     1     117.833 156.119 111.911  1.00  0.00     0.098 A 
ATOM      8  C   UNL     1     117.549 155.608 113.183  1.00  0.00     0.270 A 
ATOM      9  C   UNL     1     116.996 156.429 114.169  1.00  0.00     0.088 A 
ATOM     10  C   UNL     1     116.755 157.774 113.883  1.00  0.00     0.034 A 
ATOM     11  C   UNL     1     117.073 158.316 112.627  1.00  0.00     0.051 A 
ATOM     12  N   UNL     1     116.831 159.690 112.481  1.00  0.00    -0.324 N 
ATOM     13  H   UNL     1     116.212 160.155 113.134  1.00  0.00     0.170 HD
ENDROOT
BRANCH   5  14
ATOM     14  C   UNL     1     117.283 156.980 109.133  1.00  0.00     0.019 A 
ATOM     15  C   UNL     1     115.969 156.497 109.179  1.00  0.00     0.012 A 
ATOM     16  C   UNL     1     118.144 156.594 108.100  1.00  0.00     0.050 A 
ATOM     17  C   UNL     1     115.520 155.619 108.194  1.00  0.00     0.001 A 
ATOM     18  C   UNL     1     117.687 155.713 107.118  1.00  0.00     0.021 A 
ATOM     19  C   UNL     1     116.377 155.226 107.166  1.00  0.00     0.002 A 
ATOM     20  Cl  UNL     1     119.786 157.123 108.021  1.00  0.00    -0.084 Cl
ENDBRANCH   5  14
BRANCH   8  21
ATOM     21  N   UNL     1     117.810 154.192 113.476  1.00  0.00     0.062 N 
ATOM     22  O   UNL     1     118.214 153.478 112.548  1.00  0.00    -0.258 OA
ATOM     23  O   UNL     1     117.617 153.801 114.635  1.00  0.00    -0.258 OA
ENDBRANCH   8  21
TORSDOF 2
ENDMDL
MODEL 2
REMARK VINA RESULT:    -8.988      3.403      6.000
REMARK INTER + INTRA:         -10.423
REMARK INTER:                 -10.636
REMARK INTRA:                   0.214
REMARK UNBOUND:                -0.384
REMARK SMILES O=C1CN=C(c2ccccc2Cl)c2cc([N+](=O)[O-])ccc2N1
REMARK SMILES IDX 1 1 2 2 3 3 4 4 5 5 13 6 14 7 15 8 19 9 20 10 21 11 22 12
REMARK SMILES IDX 6 14 7 15 11 16 8 17 10 18 9 19 12 20 16 21 17 22 18 23
REMARK H PARENT 22 13
ROOT
ATOM      1  O   UNL     1     115.769 155.965 112.390  1.00  0.00    -0.273 OA
ATOM      2  C   UNL     1     116.647 156.201 111.560  1.00  0.00     0.246 C 
ATOM      3  C   UNL     1     118.108 156.358 111.929  1.00  0.00     0.243 C 
ATOM      4  N   UNL     1     118.568 157.706 111.629  1.00  0.00    -0.274 NA
ATOM      5  C   UNL     1     118.684 158.079 110.403  1.00  0.00     0.076 C 
ATOM      6  C   UNL     1     118.320 157.279 109.192  1.00  0.00     0.031 A 
ATOM      7  C   UNL     1     119.103 157.438 108.033  1.00  0.00     0.098 A 
ATOM      8  C   UNL     1     118.702 156.852 106.827  1.00  0.00     0.270 A 
ATOM      9  C   UNL     1     117.516 156.118 106.755  1.00  0.00     0.088 A 
ATOM     10  C   UNL     1     116.746 155.949 107.908  1.00  0.00     0.034 A 
ATOM     11  C   UNL     1     117.153 156.493 109.137  1.00  0.00     0.051 A 
ATOM     12  N   UNL     1     116.321 156.210 110.230  1.00  0.00    -0.324 N 
ATOM     13  H   UNL     1     115.373 155.895 110.062  1.00  0.00     0.170 HD
ENDROOT
BRANCH   5  14
ATOM     14  C   UNL     1     119.177 159.465 110.189  1.00  0.00     0.019 A 
ATOM     15  C   UNL     1     120.348 159.633 109.437  1.00  0.00     0.012 A 
ATOM     16  C   UNL     1     118.495 160.575 110.696  1.00  0.00     0.050 A 
ATOM     17  C   UNL     1     120.841 160.916 109.203  1.00  0.00     0.001 A 
ATOM     18  C   UNL     1     118.996 161.857 110.457  1.00  0.00     0.021 A 
ATOM     19  C   UNL     1     120.167 162.027 109.713  1.00  0.00     0.002 A 
ATOM     20  Cl  UNL     1     117.075 160.423 111.665  1.00  0.00    -0.084 Cl
ENDBRANCH   5  14
BRANCH   8  21
ATOM     21  N   UNL     1     119.521 157.031 105.620  1.00  0.00     0.062 N 
ATOM     22  O   UNL     1     118.951 157.418 104.591  1.00  0.00    -0.258 OA
ATOM     23  O   UNL     1     120.732 156.790 105.708  1.00  0.00    -0.258 OA
ENDBRANCH   8  21
TORSDOF 2
ENDMDL
MODEL 3
REMARK VINA RESULT:    -8.095      2.887      5.797
REMARK INTER + INTRA:          -9.425
REMARK INTER:                 -10.196
REMARK INTRA:                   0.770
REMARK UNBOUND:                -0.384
REMARK SMILES O=C1CN=C(c2ccccc2Cl)c2cc([N+](=O)[O-])ccc2N1
REMARK SMILES IDX 1 1 2 2 3 3 4 4 5 5 13 6 14 7 15 8 19 9 20 10 21 11 22 12
REMARK SMILES IDX 6 14 7 15 11 16 8 17 10 18 9 19 12 20 16 21 17 22 18 23
REMARK H PARENT 22 13
ROOT
ATOM      1  O   UNL     1     115.894 154.838 113.864  1.00  0.00    -0.273 OA
ATOM      2  C   UNL     1     116.671 155.485 113.162  1.00  0.00     0.246 C 
ATOM      3  C   UNL     1     117.797 156.321 113.736  1.00  0.00     0.243 C 
ATOM      4  N   UNL     1     117.594 157.728 113.427  1.00  0.00    -0.274 NA
ATOM      5  C   UNL     1     117.713 158.136 112.212  1.00  0.00     0.076 C 
ATOM      6  C   UNL     1     117.977 157.284 111.012  1.00  0.00     0.031 A 
ATOM      7  C   UNL     1     118.763 157.824 109.976  1.00  0.00     0.098 A 
ATOM      8  C   UNL     1     118.891 157.142 108.760  1.00  0.00     0.270 A 
ATOM      9  C   UNL     1     118.232 155.927 108.556  1.00  0.00     0.088 A 
ATOM     10  C   UNL     1     117.463 155.385 109.588  1.00  0.00     0.034 A 
ATOM     11  C   UNL     1     117.357 156.033 110.830  1.00  0.00     0.051 A 
ATOM     12  N   UNL     1     116.598 155.361 111.800  1.00  0.00    -0.324 N 
ATOM     13  H   UNL     1     115.959 154.631 111.511  1.00  0.00     0.170 HD
ENDROOT
BRANCH   5  14
ATOM     14  C   UNL     1     117.508 159.591 111.991  1.00  0.00     0.019 A 
ATOM     15  C   UNL     1     118.362 160.243 111.091  1.00  0.00     0.012 A 
ATOM     16  C   UNL     1     116.487 160.297 112.637  1.00  0.00     0.050 A 
ATOM     17  C   UNL     1     118.198 161.605 110.846  1.00  0.00     0.001 A 
ATOM     18  C   UNL     1     116.331 161.662 112.385  1.00  0.00     0.021 A 
ATOM     19  C   UNL     1     117.186 162.315 111.493  1.00  0.00     0.002 A 
ATOM     20  Cl  UNL     1     115.436 159.555 113.788  1.00  0.00    -0.084 Cl
ENDBRANCH   5  14
BRANCH   8  21
ATOM     21  N   UNL     1     119.706 157.718 107.682  1.00  0.00     0.062 N 
ATOM     22  O   UNL     1     120.278 156.933 106.912  1.00  0.00    -0.258 OA
ATOM     23  O   UNL     1     119.765 158.952 107.604  1.00  0.00    -0.258 OA
ENDBRANCH   8  21
TORSDOF 2
ENDMDL
MODEL 4
REMARK VINA RESULT:    -7.433      1.548      2.073
REMARK INTER + INTRA:          -8.686
REMARK INTER:                  -8.209
REMARK INTRA:                  -0.477
REMARK UNBOUND:                -0.384
REMARK SMILES O=C1CN=C(c2ccccc2Cl)c2cc([N+](=O)[O-])ccc2N1
REMARK SMILES IDX 1 1 2 2 3 3 4 4 5 5 13 6 14 7 15 8 19 9 20 10 21 11 22 12
REMARK SMILES IDX 6 14 7 15 11 16 8 17 10 18 9 19 12 20 16 21 17 22 18 23
REMARK H PARENT 22 13
ROOT
ATOM      1  O   UNL     1     114.492 161.209 113.278  1.00  0.00    -0.273 OA
ATOM      2  C   UNL     1     115.269 160.253 113.287  1.00  0.00     0.246 C 
ATOM      3  C   UNL     1     116.713 160.364 112.844  1.00  0.00     0.243 C 
ATOM      4  N   UNL     1     116.953 159.532 111.674  1.00  0.00    -0.274 NA
ATOM      5  C   UNL     1     116.932 158.250 111.791  1.00  0.00     0.076 C 
ATOM      6  C   UNL     1     116.605 157.477 113.029  1.00  0.00     0.031 A 
ATOM      7  C   UNL     1     117.278 156.259 113.245  1.00  0.00     0.098 A 
ATOM      8  C   UNL     1     116.885 155.413 114.288  1.00  0.00     0.270 A 
ATOM      9  C   UNL     1     115.814 155.759 115.117  1.00  0.00     0.088 A 
ATOM     10  C   UNL     1     115.156 156.974 114.911  1.00  0.00     0.034 A 
ATOM     11  C   UNL     1     115.563 157.855 113.896  1.00  0.00     0.051 A 
ATOM     12  N   UNL     1     114.855 159.064 113.825  1.00  0.00    -0.324 N 
ATOM     13  H   UNL     1     113.954 159.137 114.280  1.00  0.00     0.170 HD
ENDROOT
BRANCH   5  14
ATOM     14  C   UNL     1     117.205 157.480 110.550  1.00  0.00     0.019 A 
ATOM     15  C   UNL     1     116.190 156.646 110.061  1.00  0.00     0.012 A 
ATOM     16  C   UNL     1     118.422 157.588 109.869  1.00  0.00     0.050 A 
ATOM     17  C   UNL     1     116.399 155.913 108.894  1.00  0.00     0.001 A 
ATOM     18  C   UNL     1     118.623 156.849 108.701  1.00  0.00     0.021 A 
ATOM     19  C   UNL     1     117.614 156.013 108.215  1.00  0.00     0.002 A 
ATOM     20  Cl  UNL     1     119.721 158.564 110.450  1.00  0.00    -0.084 Cl
ENDBRANCH   5  14
BRANCH   8  21
ATOM     21  N   UNL     1     117.587 154.139 114.500  1.00  0.00     0.062 N 
ATOM     22  O   UNL     1     117.446 153.582 115.598  1.00  0.00    -0.258 OA
ATOM     23  O   UNL     1     118.271 153.699 113.568  1.00  0.00    -0.258 OA
ENDBRANCH   8  21
TORSDOF 2
ENDMDL
MODEL 5
REMARK VINA RESULT:    -7.218      2.317      5.154
REMARK INTER + INTRA:          -8.445
REMARK INTER:                  -7.905
REMARK INTRA:                  -0.541
REMARK UNBOUND:                -0.384
REMARK SMILES O=C1CN=C(c2ccccc2Cl)c2cc([N+](=O)[O-])ccc2N1
REMARK SMILES IDX 1 1 2 2 3 3 4 4 5 5 13 6 14 7 15 8 19 9 20 10 21 11 22 12
REMARK SMILES IDX 6 14 7 15 11 16 8 17 10 18 9 19 12 20 16 21 17 22 18 23
REMARK H PARENT 22 13
ROOT
ATOM      1  O   UNL     1     117.579 153.925 115.507  1.00  0.00    -0.273 OA
ATOM      2  C   UNL     1     117.062 154.852 114.883  1.00  0.00     0.246 C 
ATOM      3  C   UNL     1     116.319 154.652 113.578  1.00  0.00     0.243 C 
ATOM      4  N   UNL     1     116.998 155.346 112.494  1.00  0.00    -0.274 NA
ATOM      5  C   UNL     1     117.000 156.633 112.467  1.00  0.00     0.076 C 
ATOM      6  C   UNL     1     116.423 157.545 113.503  1.00  0.00     0.031 A 
ATOM      7  C   UNL     1     115.853 158.758 113.074  1.00  0.00     0.098 A 
ATOM      8  C   UNL     1     115.462 159.722 114.010  1.00  0.00     0.270 A 
ATOM      9  C   UNL     1     115.645 159.498 115.377  1.00  0.00     0.088 A 
ATOM     10  C   UNL     1     116.198 158.289 115.803  1.00  0.00     0.034 A 
ATOM     11  C   UNL     1     116.557 157.292 114.881  1.00  0.00     0.051 A 
ATOM     12  N   UNL     1     117.053 156.104 115.438  1.00  0.00    -0.324 N 
ATOM     13  H   UNL     1     117.386 156.106 116.394  1.00  0.00     0.170 HD
ENDROOT
BRANCH   5  14
ATOM     14  C   UNL     1     117.701 157.258 111.314  1.00  0.00     0.019 A 
ATOM     15  C   UNL     1     118.856 158.006 111.578  1.00  0.00     0.012 A 
ATOM     16  C   UNL     1     117.246 157.096 110.001  1.00  0.00     0.050 A 
ATOM     17  C   UNL     1     119.550 158.601 110.526  1.00  0.00     0.001 A 
ATOM     18  C   UNL     1     117.947 157.696 108.953  1.00  0.00     0.021 A 
ATOM     19  C   UNL     1     119.096 158.448 109.215  1.00  0.00     0.002 A 
ATOM     20  Cl  UNL     1     115.805 156.223 109.624  1.00  0.00    -0.084 Cl
ENDBRANCH   5  14
BRANCH   8  21
ATOM     21  N   UNL     1     114.877 160.990 113.552  1.00  0.00     0.062 N 
ATOM     22  O   UNL     1     115.652 161.925 113.308  1.00  0.00    -0.258 OA
ATOM     23  O   UNL     1     113.646 161.044 113.432  1.00  0.00    -0.258 OA
ENDBRANCH   8  21
TORSDOF 2
ENDMDL
MODEL 6
REMARK VINA RESULT:    -7.159      4.237      6.905
REMARK INTER + INTRA:          -8.379
REMARK INTER:                  -7.757
REMARK INTRA:                  -0.623
REMARK UNBOUND:                -0.384
REMARK SMILES O=C1CN=C(c2ccccc2Cl)c2cc([N+](=O)[O-])ccc2N1
REMARK SMILES IDX 1 1 2 2 3 3 4 4 5 5 13 6 14 7 15 8 19 9 20 10 21 11 22 12
REMARK SMILES IDX 6 14 7 15 11 16 8 17 10 18 9 19 12 20 16 21 17 22 18 23
REMARK H PARENT 22 13
ROOT
ATOM      1  O   UNL     1     118.610 153.061 118.541  1.00  0.00    -0.273 OA
ATOM      2  C   UNL     1     117.710 153.705 118.002  1.00  0.00     0.246 C 
ATOM      3  C   UNL     1     116.817 153.126 116.923  1.00  0.00     0.243 C 
ATOM      4  N   UNL     1     117.003 153.842 115.670  1.00  0.00    -0.274 NA
ATOM      5  C   UNL     1     116.592 155.057 115.565  1.00  0.00     0.076 C 
ATOM      6  C   UNL     1     115.982 155.885 116.651  1.00  0.00     0.031 A 
ATOM      7  C   UNL     1     114.981 156.809 116.296  1.00  0.00     0.098 A 
ATOM      8  C   UNL     1     114.506 157.729 117.238  1.00  0.00     0.270 A 
ATOM      9  C   UNL     1     115.027 157.750 118.534  1.00  0.00     0.088 A 
ATOM     10  C   UNL     1     116.009 156.823 118.890  1.00  0.00     0.034 A 
ATOM     11  C   UNL     1     116.469 155.865 117.972  1.00  0.00     0.051 A 
ATOM     12  N   UNL     1     117.419 154.960 118.466  1.00  0.00    -0.324 N 
ATOM     13  H   UNL     1     117.923 155.185 119.315  1.00  0.00     0.170 HD
ENDROOT
BRANCH   5  14
ATOM     14  C   UNL     1     116.806 155.704 114.244  1.00  0.00     0.019 A 
ATOM     15  C   UNL     1     118.015 156.381 114.036  1.00  0.00     0.012 A 
ATOM     16  C   UNL     1     115.850 155.631 113.225  1.00  0.00     0.050 A 
ATOM     17  C   UNL     1     118.262 156.993 112.808  1.00  0.00     0.001 A 
ATOM     18  C   UNL     1     116.105 156.249 111.999  1.00  0.00     0.021 A 
ATOM     19  C   UNL     1     117.308 156.929 111.791  1.00  0.00     0.002 A 
ATOM     20  Cl  UNL     1     114.326 154.850 113.444  1.00  0.00    -0.084 Cl
ENDBRANCH   5  14
BRANCH   8  21
ATOM     21  N   UNL     1     113.468 158.697 116.855  1.00  0.00     0.062 N 
ATOM     22  O   UNL     1     113.112 158.718 115.669  1.00  0.00    -0.258 OA
ATOM     23  O   UNL     1     113.009 159.427 117.743  1.00  0.00    -0.258 OA
ENDBRANCH   8  21
TORSDOF 2
ENDMDL
MODEL 7
REMARK VINA RESULT:    -6.938      4.195      6.434
REMARK INTER + INTRA:          -8.133
REMARK INTER:                  -7.462
REMARK INTRA:                  -0.671
REMARK UNBOUND:                -0.384
REMARK SMILES O=C1CN=C(c2ccccc2Cl)c2cc([N+](=O)[O-])ccc2N1
REMARK SMILES IDX 1 1 2 2 3 3 4 4 5 5 13 6 14 7 15 8 19 9 20 10 21 11 22 12
REMARK SMILES IDX 6 14 7 15 11 16 8 17 10 18 9 19 12 20 16 21 17 22 18 23
REMARK H PARENT 22 13
ROOT
ATOM      1  O   UNL     1     116.617 156.576 119.120  1.00  0.00    -0.273 OA
ATOM      2  C   UNL     1     116.766 156.940 117.954  1.00  0.00     0.246 C 
ATOM      3  C   UNL     1     117.211 158.338 117.578  1.00  0.00     0.243 C 
ATOM      4  N   UNL     1     116.169 159.021 116.827  1.00  0.00    -0.274 NA
ATOM      5  C   UNL     1     115.887 158.631 115.634  1.00  0.00     0.076 C 
ATOM      6  C   UNL     1     116.481 157.459 114.918  1.00  0.00     0.031 A 
ATOM      7  C   UNL     1     116.665 157.557 113.526  1.00  0.00     0.098 A 
ATOM      8  C   UNL     1     117.049 156.433 112.785  1.00  0.00     0.270 A 
ATOM      9  C   UNL     1     117.239 155.201 113.416  1.00  0.00     0.088 A 
ATOM     10  C   UNL     1     117.070 155.107 114.799  1.00  0.00     0.034 A 
ATOM     11  C   UNL     1     116.727 156.233 115.565  1.00  0.00     0.051 A 
ATOM     12  N   UNL     1     116.637 156.019 116.948  1.00  0.00    -0.324 N 
ATOM     13  H   UNL     1     116.542 155.074 117.298  1.00  0.00     0.170 HD
ENDROOT
BRANCH   5  14
ATOM     14  C   UNL     1     114.822 159.396 114.933  1.00  0.00     0.019 A 
ATOM     15  C   UNL     1     115.195 160.568 114.261  1.00  0.00     0.012 A 
ATOM     16  C   UNL     1     113.492 158.963 114.919  1.00  0.00     0.050 A 
ATOM     17  C   UNL     1     114.230 161.311 113.582  1.00  0.00     0.001 A 
ATOM     18  C   UNL     1     112.533 159.715 114.237  1.00  0.00     0.021 A 
ATOM     19  C   UNL     1     112.901 160.887 113.571  1.00  0.00     0.002 A 
ATOM     20  Cl  UNL     1     112.971 157.553 115.768  1.00  0.00    -0.084 Cl
ENDBRANCH   5  14
BRANCH   8  21
ATOM     21  N   UNL     1     117.229 156.542 111.331  1.00  0.00     0.062 N 
ATOM     22  O   UNL     1     118.261 157.090 110.920  1.00  0.00    -0.258 OA
ATOM     23  O   UNL     1     116.341 156.076 110.606  1.00  0.00    -0.258 OA
ENDBRANCH   8  21
TORSDOF 2
ENDMDL
MODEL 8
REMARK VINA RESULT:    -6.862      4.144      7.479
REMARK INTER + INTRA:          -8.048
REMARK INTER:                  -7.372
REMARK INTRA:                  -0.675
REMARK UNBOUND:                -0.384
REMARK SMILES O=C1CN=C(c2ccccc2Cl)c2cc([N+](=O)[O-])ccc2N1
REMARK SMILES IDX 1 1 2 2 3 3 4 4 5 5 13 6 14 7 15 8 19 9 20 10 21 11 22 12
REMARK SMILES IDX 6 14 7 15 11 16 8 17 10 18 9 19 12 20 16 21 17 22 18 23
REMARK H PARENT 22 13
ROOT
ATOM      1  O   UNL     1     115.743 156.292 114.824  1.00  0.00    -0.273 OA
ATOM      2  C   UNL     1     115.965 157.472 114.554  1.00  0.00     0.246 C 
ATOM      3  C   UNL     1     115.965 158.569 115.598  1.00  0.00     0.243 C 
ATOM      4  N   UNL     1     114.905 159.529 115.330  1.00  0.00    -0.274 NA
ATOM      5  C   UNL     1     114.993 160.302 114.304  1.00  0.00     0.076 C 
ATOM      6  C   UNL     1     116.070 160.282 113.267  1.00  0.00     0.031 A 
ATOM      7  C   UNL     1     116.456 161.507 112.690  1.00  0.00     0.098 A 
ATOM      8  C   UNL     1     117.327 161.526 111.594  1.00  0.00     0.270 A 
ATOM      9  C   UNL     1     117.810 160.333 111.053  1.00  0.00     0.088 A 
ATOM     10  C   UNL     1     117.438 159.118 111.634  1.00  0.00     0.034 A 
ATOM     11  C   UNL     1     116.599 159.081 112.760  1.00  0.00     0.051 A 
ATOM     12  N   UNL     1     116.341 157.804 113.280  1.00  0.00    -0.324 N 
ATOM     13  H   UNL     1     116.514 156.990 112.702  1.00  0.00     0.170 HD
ENDROOT
BRANCH   5  14
ATOM     14  C   UNL     1     113.875 161.263 114.117  1.00  0.00     0.019 A 
ATOM     15  C   UNL     1     112.797 160.865 113.314  1.00  0.00     0.012 A 
ATOM     16  C   UNL     1     113.873 162.520 114.733  1.00  0.00     0.050 A 
ATOM     17  C   UNL     1     111.722 161.732 113.121  1.00  0.00     0.001 A 
ATOM     18  C   UNL     1     112.793 163.381 114.532  1.00  0.00     0.021 A 
ATOM     19  C   UNL     1     111.720 162.988 113.727  1.00  0.00     0.002 A 
ATOM     20  Cl  UNL     1     115.194 163.078 115.695  1.00  0.00    -0.084 Cl
ENDBRANCH   5  14
BRANCH   8  21
ATOM     21  N   UNL     1     117.716 162.809 110.993  1.00  0.00     0.062 N 
ATOM     22  O   UNL     1     117.120 163.826 111.372  1.00  0.00    -0.258 OA
ATOM     23  O   UNL     1     118.621 162.795 110.148  1.00  0.00    -0.258 OA
ENDBRANCH   8  21
TORSDOF 2
ENDMDL
MODEL 9
REMARK VINA RESULT:    -6.517      3.838      6.531
REMARK INTER + INTRA:          -7.663
REMARK INTER:                  -7.040
REMARK INTRA:                  -0.623
REMARK UNBOUND:                -0.384
REMARK SMILES O=C1CN=C(c2ccccc2Cl)c2cc([N+](=O)[O-])ccc2N1
REMARK SMILES IDX 1 1 2 2 3 3 4 4 5 5 13 6 14 7 15 8 19 9 20 10 21 11 22 12
REMARK SMILES IDX 6 14 7 15 11 16 8 17 10 18 9 19 12 20 16 21 17 22 18 23
REMARK H PARENT 22 13
ROOT
ATOM      1  O   UNL     1     117.406 155.740 119.205  1.00  0.00    -0.273 OA
ATOM      2  C   UNL     1     116.743 156.267 118.312  1.00  0.00     0.246 C 
ATOM      3  C   UNL     1     115.798 155.488 117.420  1.00  0.00     0.243 C 
ATOM      4  N   UNL     1     116.243 155.543 116.035  1.00  0.00    -0.274 NA
ATOM      5  C   UNL     1     116.174 156.654 115.389  1.00  0.00     0.076 C 
ATOM      6  C   UNL     1     115.737 157.975 115.938  1.00  0.00     0.031 A 
ATOM      7  C   UNL     1     115.040 158.849 115.082  1.00  0.00     0.098 A 
ATOM      8  C   UNL     1     114.766 160.161 115.487  1.00  0.00     0.270 A 
ATOM      9  C   UNL     1     115.193 160.621 116.735  1.00  0.00     0.088 A 
ATOM     10  C   UNL     1     115.872 159.749 117.589  1.00  0.00     0.034 A 
ATOM     11  C   UNL     1     116.119 158.417 117.218  1.00  0.00     0.051 A 
ATOM     12  N   UNL     1     116.764 157.630 118.183  1.00  0.00    -0.324 N 
ATOM     13  H   UNL     1     117.256 158.083 118.944  1.00  0.00     0.170 HD
ENDROOT
BRANCH   5  14
ATOM     14  C   UNL     1     116.633 156.613 113.976  1.00  0.00     0.019 A 
ATOM     15  C   UNL     1     117.831 157.267 113.658  1.00  0.00     0.012 A 
ATOM     16  C   UNL     1     115.914 155.931 112.988  1.00  0.00     0.050 A 
ATOM     17  C   UNL     1     118.304 157.246 112.347  1.00  0.00     0.001 A 
ATOM     18  C   UNL     1     116.395 155.916 111.677  1.00  0.00     0.021 A 
ATOM     19  C   UNL     1     117.587 156.573 111.357  1.00  0.00     0.002 A 
ATOM     20  Cl  UNL     1     114.411 155.148 113.314  1.00  0.00    -0.084 Cl
ENDBRANCH   5  14
BRANCH   8  21
ATOM     21  N   UNL     1     114.046 161.069 114.584  1.00  0.00     0.062 N 
ATOM     22  O   UNL     1     112.808 161.061 114.628  1.00  0.00    -0.258 OA
ATOM     23  O   UNL     1     114.721 161.790 113.838  1.00  0.00    -0.258 OA
ENDBRANCH   8  21
TORSDOF 2
ENDMDL
