MODEL 1
REMARK VINA RESULT:    -7.525      0.000      0.000
REMARK INTER + INTRA:          -9.565
REMARK INTER:                  -8.845
REMARK INTRA:                  -0.720
REMARK UNBOUND:                -0.720
REMARK SMILES Cc1ccc(-c2nc3ccc(C)cn3c2CC(=O)N(C)C)cc1
REMARK SMILES IDX 6 1 7 2 8 3 9 4 10 5 11 6 12 7 13 8 14 9 15 10 5 11 2 12
REMARK SMILES IDX 3 13 23 14 4 15 22 16 1 17 16 18 17 19 18 20 19 21 20 22
REMARK SMILES IDX 21 23
REMARK H PARENT
ROOT
ATOM      1  C   UNL     1     143.813  96.086 138.631  1.00  0.00     0.093 A 
ATOM      2  N   UNL     1     144.787  95.152 138.374  1.00  0.00    -0.228 NA
ATOM      3  C   UNL     1     144.989  95.206 137.078  1.00  0.00     0.137 A 
ATOM      4  C   UNL     1     145.858  94.448 136.243  1.00  0.00     0.048 C 
ATOM      5  C   UNL     1     145.865  94.661 134.914  1.00  0.00     0.009 C 
ATOM      6  C   UNL     1     144.999  95.659 134.293  1.00  0.00    -0.034 C 
ATOM      7  C   UNL     1     145.066  95.822 132.808  1.00  0.00     0.046 C 
ATOM      8  C   UNL     1     144.187  96.382 135.088  1.00  0.00     0.096 C 
ATOM      9  N   UNL     1     144.189  96.168 136.469  1.00  0.00    -0.303 N 
ATOM     10  C   UNL     1     143.470  96.788 137.484  1.00  0.00     0.060 A 
ENDROOT
BRANCH   1  11
ATOM     11  C   UNL     1     143.298  96.290 139.971  1.00  0.00     0.002 A 
ATOM     12  C   UNL     1     142.349  96.699 142.592  1.00  0.00    -0.051 A 
ATOM     13  C   UNL     1     143.659  97.053 142.249  1.00  0.00     0.004 A 
ATOM     14  C   UNL     1     141.517  96.141 141.614  1.00  0.00     0.004 A 
ATOM     15  C   UNL     1     144.131  96.838 140.952  1.00  0.00     0.011 A 
ATOM     16  C   UNL     1     141.991  95.928 140.317  1.00  0.00     0.011 A 
ATOM     17  C   UNL     1     141.831  96.954 143.977  1.00  0.00     0.044 C 
ENDBRANCH   1  11
BRANCH  10  18
ATOM     18  C   UNL     1     142.555  97.952 137.259  1.00  0.00     0.157 C 
BRANCH  18  19
ATOM     19  C   UNL     1     141.233  97.518 136.627  1.00  0.00     0.228 C 
ATOM     20  O   UNL     1     140.461  96.811 137.282  1.00  0.00    -0.274 OA
ATOM     21  N   UNL     1     140.932  97.925 135.334  1.00  0.00    -0.348 N 
ATOM     22  C   UNL     1     141.767  98.785 134.511  1.00  0.00     0.146 C 
ATOM     23  C   UNL     1     139.746  97.388 134.685  1.00  0.00     0.146 C 
ENDBRANCH  18  19
ENDBRANCH  10  18
TORSDOF 3
ENDMDL
MODEL 2
REMARK VINA RESULT:    -7.405      1.152      1.652
REMARK INTER + INTRA:          -9.423
REMARK INTER:                  -8.717
REMARK INTRA:                  -0.706
REMARK UNBOUND:                -0.720
REMARK SMILES Cc1ccc(-c2nc3ccc(C)cn3c2CC(=O)N(C)C)cc1
REMARK SMILES IDX 6 1 7 2 8 3 9 4 10 5 11 6 12 7 13 8 14 9 15 10 5 11 2 12
REMARK SMILES IDX 3 13 23 14 4 15 22 16 1 17 16 18 17 19 18 20 19 21 20 22
REMARK SMILES IDX 21 23
REMARK H PARENT
ROOT
ATOM      1  C   UNL     1     143.934  95.345 138.823  1.00  0.00     0.093 A 
ATOM      2  N   UNL     1     145.284  95.133 138.685  1.00  0.00    -0.228 NA
ATOM      3  C   UNL     1     145.479  94.940 137.401  1.00  0.00     0.137 A 
ATOM      4  C   UNL     1     146.668  94.644 136.677  1.00  0.00     0.048 C 
ATOM      5  C   UNL     1     146.613  94.450 135.346  1.00  0.00     0.009 C 
ATOM      6  C   UNL     1     145.354  94.535 134.612  1.00  0.00    -0.034 C 
ATOM      7  C   UNL     1     145.384  94.295 133.136  1.00  0.00     0.046 C 
ATOM      8  C   UNL     1     144.232  94.827 135.298  1.00  0.00     0.096 C 
ATOM      9  N   UNL     1     144.293  95.040 136.678  1.00  0.00    -0.303 N 
ATOM     10  C   UNL     1     143.297  95.368 137.590  1.00  0.00     0.060 A 
ENDROOT
BRANCH   1  11
ATOM     11  C   UNL     1     143.333  95.562 140.125  1.00  0.00     0.002 A 
ATOM     12  C   UNL     1     142.126  95.947 142.641  1.00  0.00    -0.051 A 
ATOM     13  C   UNL     1     141.712  94.902 141.808  1.00  0.00     0.004 A 
ATOM     14  C   UNL     1     143.150  96.797 142.207  1.00  0.00     0.004 A 
ATOM     15  C   UNL     1     142.303  94.720 140.555  1.00  0.00     0.011 A 
ATOM     16  C   UNL     1     143.742  96.613 140.954  1.00  0.00     0.011 A 
ATOM     17  C   UNL     1     141.511  96.128 143.997  1.00  0.00     0.044 C 
ENDBRANCH   1  11
BRANCH  10  18
ATOM     18  C   UNL     1     141.881  95.658 137.200  1.00  0.00     0.157 C 
BRANCH  18  19
ATOM     19  C   UNL     1     141.706  97.106 136.742  1.00  0.00     0.228 C 
ATOM     20  O   UNL     1     142.388  97.987 137.274  1.00  0.00    -0.274 OA
ATOM     21  N   UNL     1     140.786  97.396 135.744  1.00  0.00    -0.348 N 
ATOM     22  C   UNL     1     139.974  96.414 135.043  1.00  0.00     0.146 C 
ATOM     23  C   UNL     1     140.517  98.787 135.417  1.00  0.00     0.146 C 
ENDBRANCH  18  19
ENDBRANCH  10  18
TORSDOF 3
ENDMDL
MODEL 3
REMARK VINA RESULT:    -7.236      2.428      4.937
REMARK INTER + INTRA:          -9.225
REMARK INTER:                  -8.557
REMARK INTRA:                  -0.668
REMARK UNBOUND:                -0.720
REMARK SMILES Cc1ccc(-c2nc3ccc(C)cn3c2CC(=O)N(C)C)cc1
REMARK SMILES IDX 6 1 7 2 8 3 9 4 10 5 11 6 12 7 13 8 14 9 15 10 5 11 2 12
REMARK SMILES IDX 3 13 23 14 4 15 22 16 1 17 16 18 17 19 18 20 19 21 20 22
REMARK SMILES IDX 21 23
REMARK H PARENT
ROOT
ATOM      1  C   UNL     1     141.267  97.768 136.483  1.00  0.00     0.093 A 
ATOM      2  N   UNL     1     140.427  98.855 136.456  1.00  0.00    -0.228 NA
ATOM      3  C   UNL     1     140.221  99.106 135.184  1.00  0.00     0.137 A 
ATOM      4  C   UNL     1     139.463 100.131 134.552  1.00  0.00     0.048 C 
ATOM      5  C   UNL     1     139.429 100.210 133.209  1.00  0.00     0.009 C 
ATOM      6  C   UNL     1     140.155  99.263 132.368  1.00  0.00    -0.034 C 
ATOM      7  C   UNL     1     140.069  99.430 130.885  1.00  0.00     0.046 C 
ATOM      8  C   UNL     1     140.862  98.286 132.969  1.00  0.00     0.096 C 
ATOM      9  N   UNL     1     140.887  98.199 134.364  1.00  0.00    -0.303 N 
ATOM     10  C   UNL     1     141.514  97.288 135.204  1.00  0.00     0.060 A 
ENDROOT
BRANCH   1  11
ATOM     11  C   UNL     1     141.748  97.217 137.735  1.00  0.00     0.002 A 
ATOM     12  C   UNL     1     142.632  96.155 140.191  1.00  0.00    -0.051 A 
ATOM     13  C   UNL     1     141.277  96.434 139.986  1.00  0.00     0.004 A 
ATOM     14  C   UNL     1     143.543  96.408 139.157  1.00  0.00     0.004 A 
ATOM     15  C   UNL     1     140.841  96.972 138.772  1.00  0.00     0.011 A 
ATOM     16  C   UNL     1     143.105  96.945 137.943  1.00  0.00     0.011 A 
ATOM     17  C   UNL     1     143.098  95.552 141.483  1.00  0.00     0.044 C 
ENDBRANCH   1  11
BRANCH  10  18
ATOM     18  C   UNL     1     142.265  96.089 134.713  1.00  0.00     0.157 C 
BRANCH  18  19
ATOM     19  C   UNL     1     143.618  96.475 134.117  1.00  0.00     0.228 C 
ATOM     20  O   UNL     1     144.434  97.074 134.825  1.00  0.00    -0.274 OA
ATOM     21  N   UNL     1     143.897  96.147 132.797  1.00  0.00    -0.348 N 
ATOM     22  C   UNL     1     143.008  95.413 131.911  1.00  0.00     0.146 C 
ATOM     23  C   UNL     1     145.122  96.646 132.191  1.00  0.00     0.146 C 
ENDBRANCH  18  19
ENDBRANCH  10  18
TORSDOF 3
ENDMDL
MODEL 4
REMARK VINA RESULT:    -6.864      2.194      6.487
REMARK INTER + INTRA:          -8.787
REMARK INTER:                  -7.723
REMARK INTRA:                  -1.064
REMARK UNBOUND:                -0.720
REMARK SMILES Cc1ccc(-c2nc3ccc(C)cn3c2CC(=O)N(C)C)cc1
REMARK SMILES IDX 6 1 7 2 8 3 9 4 10 5 11 6 12 7 13 8 14 9 15 10 5 11 2 12
REMARK SMILES IDX 3 13 23 14 4 15 22 16 1 17 16 18 17 19 18 20 19 21 20 22
REMARK SMILES IDX 21 23
REMARK H PARENT
ROOT
ATOM      1  C   UNL     1     141.101  96.970 136.353  1.00  0.00     0.093 A 
ATOM      2  N   UNL     1     140.710  97.512 137.552  1.00  0.00    -0.228 NA
ATOM      3  C   UNL     1     141.269  96.762 138.474  1.00  0.00     0.137 A 
ATOM      4  C   UNL     1     141.193  96.825 139.893  1.00  0.00     0.048 C 
ATOM      5  C   UNL     1     141.835  95.908 140.642  1.00  0.00     0.009 C 
ATOM      6  C   UNL     1     142.619  94.837 140.034  1.00  0.00    -0.034 C 
ATOM      7  C   UNL     1     143.291  93.856 140.941  1.00  0.00     0.046 C 
ATOM      8  C   UNL     1     142.698  94.787 138.690  1.00  0.00     0.096 C 
ATOM      9  N   UNL     1     142.041  95.746 137.915  1.00  0.00    -0.303 N 
ATOM     10  C   UNL     1     141.988  95.917 136.537  1.00  0.00     0.060 A 
ENDROOT
BRANCH   1  11
ATOM     11  C   UNL     1     140.644  97.520 135.091  1.00  0.00     0.002 A 
ATOM     12  C   UNL     1     139.789  98.634 132.649  1.00  0.00    -0.051 A 
ATOM     13  C   UNL     1     140.863  99.197 133.347  1.00  0.00     0.004 A 
ATOM     14  C   UNL     1     139.148  97.508 133.179  1.00  0.00     0.004 A 
ATOM     15  C   UNL     1     141.278  98.651 134.565  1.00  0.00     0.011 A 
ATOM     16  C   UNL     1     139.565  96.962 134.396  1.00  0.00     0.011 A 
ATOM     17  C   UNL     1     139.360  99.202 131.328  1.00  0.00     0.044 C 
ENDBRANCH   1  11
BRANCH  10  18
ATOM     18  C   UNL     1     142.764  95.081 135.568  1.00  0.00     0.157 C 
BRANCH  18  19
ATOM     19  C   UNL     1     143.924  95.862 134.950  1.00  0.00     0.228 C 
ATOM     20  O   UNL     1     144.873  96.190 135.669  1.00  0.00    -0.274 OA
ATOM     21  N   UNL     1     143.883  96.185 133.601  1.00  0.00    -0.348 N 
ATOM     22  C   UNL     1     142.822  95.805 132.681  1.00  0.00     0.146 C 
ATOM     23  C   UNL     1     144.913  97.053 133.053  1.00  0.00     0.146 C 
ENDBRANCH  18  19
ENDBRANCH  10  18
TORSDOF 3
ENDMDL
MODEL 5
REMARK VINA RESULT:    -6.588      2.812      6.356
REMARK INTER + INTRA:          -8.463
REMARK INTER:                  -7.471
REMARK INTRA:                  -0.991
REMARK UNBOUND:                -0.720
REMARK SMILES Cc1ccc(-c2nc3ccc(C)cn3c2CC(=O)N(C)C)cc1
REMARK SMILES IDX 6 1 7 2 8 3 9 4 10 5 11 6 12 7 13 8 14 9 15 10 5 11 2 12
REMARK SMILES IDX 3 13 23 14 4 15 22 16 1 17 16 18 17 19 18 20 19 21 20 22
REMARK SMILES IDX 21 23
REMARK H PARENT
ROOT
ATOM      1  C   UNL     1     141.224  95.795 135.591  1.00  0.00     0.093 A 
ATOM      2  N   UNL     1     141.326  94.774 136.505  1.00  0.00    -0.228 NA
ATOM      3  C   UNL     1     142.139  95.218 137.435  1.00  0.00     0.137 A 
ATOM      4  C   UNL     1     142.637  94.588 138.610  1.00  0.00     0.048 C 
ATOM      5  C   UNL     1     143.504  95.240 139.406  1.00  0.00     0.009 C 
ATOM      6  C   UNL     1     143.955  96.594 139.099  1.00  0.00    -0.034 C 
ATOM      7  C   UNL     1     144.927  97.240 140.034  1.00  0.00     0.046 C 
ATOM      8  C   UNL     1     143.473  97.193 137.992  1.00  0.00     0.096 C 
ATOM      9  N   UNL     1     142.564  96.518 137.172  1.00  0.00    -0.303 N 
ATOM     10  C   UNL     1     141.921  96.920 136.009  1.00  0.00     0.060 A 
ENDROOT
BRANCH   1  11
ATOM     11  C   UNL     1     140.425  95.654 134.388  1.00  0.00     0.002 A 
ATOM     12  C   UNL     1     138.918  95.358 132.027  1.00  0.00    -0.051 A 
ATOM     13  C   UNL     1     140.177  94.760 132.144  1.00  0.00     0.004 A 
ATOM     14  C   UNL     1     138.417  96.104 133.101  1.00  0.00     0.004 A 
ATOM     15  C   UNL     1     140.929  94.918 133.311  1.00  0.00     0.011 A 
ATOM     16  C   UNL     1     139.169  96.260 134.268  1.00  0.00     0.011 A 
ATOM     17  C   UNL     1     138.098  95.167 130.785  1.00  0.00     0.044 C 
ENDBRANCH   1  11
BRANCH  10  18
ATOM     18  C   UNL     1     142.036  98.297 135.433  1.00  0.00     0.157 C 
BRANCH  18  19
ATOM     19  C   UNL     1     143.161  98.388 134.403  1.00  0.00     0.228 C 
ATOM     20  O   UNL     1     144.332  98.307 134.790  1.00  0.00    -0.274 OA
ATOM     21  N   UNL     1     142.844  98.559 133.063  1.00  0.00    -0.348 N 
ATOM     22  C   UNL     1     141.495  98.626 132.524  1.00  0.00     0.146 C 
ATOM     23  C   UNL     1     143.917  98.794 132.110  1.00  0.00     0.146 C 
ENDBRANCH  18  19
ENDBRANCH  10  18
TORSDOF 3
ENDMDL
MODEL 6
REMARK VINA RESULT:    -6.439      1.395      5.971
REMARK INTER + INTRA:          -8.288
REMARK INTER:                  -7.236
REMARK INTRA:                  -1.053
REMARK UNBOUND:                -0.720
REMARK SMILES Cc1ccc(-c2nc3ccc(C)cn3c2CC(=O)N(C)C)cc1
REMARK SMILES IDX 6 1 7 2 8 3 9 4 10 5 11 6 12 7 13 8 14 9 15 10 5 11 2 12
REMARK SMILES IDX 3 13 23 14 4 15 22 16 1 17 16 18 17 19 18 20 19 21 20 22
REMARK SMILES IDX 21 23
REMARK H PARENT
ROOT
ATOM      1  C   UNL     1     143.307  96.087 137.093  1.00  0.00     0.093 A 
ATOM      2  N   UNL     1     144.266  95.866 138.051  1.00  0.00    -0.228 NA
ATOM      3  C   UNL     1     143.646  95.992 139.202  1.00  0.00     0.137 A 
ATOM      4  C   UNL     1     144.137  95.904 140.534  1.00  0.00     0.048 C 
ATOM      5  C   UNL     1     143.304  96.110 141.572  1.00  0.00     0.009 C 
ATOM      6  C   UNL     1     141.893  96.425 141.369  1.00  0.00    -0.034 C 
ATOM      7  C   UNL     1     141.042  96.648 142.579  1.00  0.00     0.046 C 
ATOM      8  C   UNL     1     141.429  96.496 140.107  1.00  0.00     0.096 C 
ATOM      9  N   UNL     1     142.292  96.270 139.031  1.00  0.00    -0.303 N 
ATOM     10  C   UNL     1     142.054  96.268 137.663  1.00  0.00     0.060 A 
ENDROOT
BRANCH   1  11
ATOM     11  C   UNL     1     143.633  96.064 135.680  1.00  0.00     0.002 A 
ATOM     12  C   UNL     1     144.262  96.076 132.934  1.00  0.00    -0.051 A 
ATOM     13  C   UNL     1     144.234  97.272 133.660  1.00  0.00     0.004 A 
ATOM     14  C   UNL     1     143.976  94.874 133.591  1.00  0.00     0.004 A 
ATOM     15  C   UNL     1     143.910  97.265 135.019  1.00  0.00     0.011 A 
ATOM     16  C   UNL     1     143.653  94.869 134.952  1.00  0.00     0.011 A 
ATOM     17  C   UNL     1     144.637  96.077 131.481  1.00  0.00     0.044 C 
ENDBRANCH   1  11
BRANCH  10  18
ATOM     18  C   UNL     1     140.695  96.436 137.058  1.00  0.00     0.157 C 
BRANCH  18  19
ATOM     19  C   UNL     1     140.488  97.850 136.516  1.00  0.00     0.228 C 
ATOM     20  O   UNL     1     140.475  98.797 137.308  1.00  0.00    -0.274 OA
ATOM     21  N   UNL     1     140.317  98.036 135.151  1.00  0.00    -0.348 N 
ATOM     22  C   UNL     1     140.355  96.980 134.151  1.00  0.00     0.146 C 
ATOM     23  C   UNL     1     139.972  99.360 134.659  1.00  0.00     0.146 C 
ENDBRANCH  18  19
ENDBRANCH  10  18
TORSDOF 3
ENDMDL
MODEL 7
REMARK VINA RESULT:    -6.342      2.532      6.986
REMARK INTER + INTRA:          -8.174
REMARK INTER:                  -7.146
REMARK INTRA:                  -1.028
REMARK UNBOUND:                -0.720
REMARK SMILES Cc1ccc(-c2nc3ccc(C)cn3c2CC(=O)N(C)C)cc1
REMARK SMILES IDX 6 1 7 2 8 3 9 4 10 5 11 6 12 7 13 8 14 9 15 10 5 11 2 12
REMARK SMILES IDX 3 13 23 14 4 15 22 16 1 17 16 18 17 19 18 20 19 21 20 22
REMARK SMILES IDX 21 23
REMARK H PARENT
ROOT
ATOM      1  C   UNL     1     140.697  97.413 135.079  1.00  0.00     0.093 A 
ATOM      2  N   UNL     1     140.082  97.208 136.289  1.00  0.00    -0.228 NA
ATOM      3  C   UNL     1     141.056  97.099 137.163  1.00  0.00     0.137 A 
ATOM      4  C   UNL     1     141.022  96.849 138.563  1.00  0.00     0.048 C 
ATOM      5  C   UNL     1     142.172  96.742 139.254  1.00  0.00     0.009 C 
ATOM      6  C   UNL     1     143.472  96.878 138.603  1.00  0.00    -0.034 C 
ATOM      7  C   UNL     1     144.699  96.736 139.446  1.00  0.00     0.046 C 
ATOM      8  C   UNL     1     143.500  97.127 137.279  1.00  0.00     0.096 C 
ATOM      9  N   UNL     1     142.304  97.249 136.565  1.00  0.00    -0.303 N 
ATOM     10  C   UNL     1     142.074  97.518 135.222  1.00  0.00     0.060 A 
ENDROOT
BRANCH   1  11
ATOM     11  C   UNL     1     139.930  97.546 133.855  1.00  0.00     0.002 A 
ATOM     12  C   UNL     1     138.445  97.749 131.470  1.00  0.00    -0.051 A 
ATOM     13  C   UNL     1     138.732  96.496 132.022  1.00  0.00     0.004 A 
ATOM     14  C   UNL     1     138.904  98.900 132.121  1.00  0.00     0.004 A 
ATOM     15  C   UNL     1     139.479  96.396 133.198  1.00  0.00     0.011 A 
ATOM     16  C   UNL     1     139.650  98.799 133.298  1.00  0.00     0.011 A 
ATOM     17  C   UNL     1     137.619  97.859 130.222  1.00  0.00     0.044 C 
ENDBRANCH   1  11
BRANCH  10  18
ATOM     18  C   UNL     1     143.161  97.837 134.243  1.00  0.00     0.157 C 
BRANCH  18  19
ATOM     19  C   UNL     1     143.633  96.589 133.497  1.00  0.00     0.228 C 
ATOM     20  O   UNL     1     144.247  95.717 134.120  1.00  0.00    -0.274 OA
ATOM     21  N   UNL     1     143.364  96.466 132.141  1.00  0.00    -0.348 N 
ATOM     22  C   UNL     1     142.617  97.427 131.345  1.00  0.00     0.146 C 
ATOM     23  C   UNL     1     143.943  95.352 131.406  1.00  0.00     0.146 C 
ENDBRANCH  18  19
ENDBRANCH  10  18
TORSDOF 3
ENDMDL
MODEL 8
REMARK VINA RESULT:    -6.241      1.877      6.474
REMARK INTER + INTRA:          -8.055
REMARK INTER:                  -7.029
REMARK INTRA:                  -1.027
REMARK UNBOUND:                -0.720
REMARK SMILES Cc1ccc(-c2nc3ccc(C)cn3c2CC(=O)N(C)C)cc1
REMARK SMILES IDX 6 1 7 2 8 3 9 4 10 5 11 6 12 7 13 8 14 9 15 10 5 11 2 12
REMARK SMILES IDX 3 13 23 14 4 15 22 16 1 17 16 18 17 19 18 20 19 21 20 22
REMARK SMILES IDX 21 23
REMARK H PARENT
ROOT
ATOM      1  C   UNL     1     143.868  95.325 135.646  1.00  0.00     0.093 A 
ATOM      2  N   UNL     1     144.837  95.735 136.528  1.00  0.00    -0.228 NA
ATOM      3  C   UNL     1     144.222  95.889 137.677  1.00  0.00     0.137 A 
ATOM      4  C   UNL     1     144.710  96.327 138.940  1.00  0.00     0.048 C 
ATOM      5  C   UNL     1     143.868  96.442 139.983  1.00  0.00     0.009 C 
ATOM      6  C   UNL     1     142.448  96.126 139.858  1.00  0.00    -0.034 C 
ATOM      7  C   UNL     1     141.582  96.291 141.066  1.00  0.00     0.046 C 
ATOM      8  C   UNL     1     141.990  95.700 138.664  1.00  0.00     0.096 C 
ATOM      9  N   UNL     1     142.869  95.570 137.585  1.00  0.00    -0.303 N 
ATOM     10  C   UNL     1     142.649  95.141 136.283  1.00  0.00     0.060 A 
ENDROOT
BRANCH   1  11
ATOM     11  C   UNL     1     144.172  95.085 134.248  1.00  0.00     0.002 A 
ATOM     12  C   UNL     1     144.775  94.563 131.546  1.00  0.00    -0.051 A 
ATOM     13  C   UNL     1     144.678  93.513 132.466  1.00  0.00     0.004 A 
ATOM     14  C   UNL     1     144.565  95.875 131.986  1.00  0.00     0.004 A 
ATOM     15  C   UNL     1     144.391  93.775 133.808  1.00  0.00     0.011 A 
ATOM     16  C   UNL     1     144.277  96.135 133.329  1.00  0.00     0.011 A 
ATOM     17  C   UNL     1     145.056  94.282 130.099  1.00  0.00     0.044 C 
ENDBRANCH   1  11
BRANCH  10  18
ATOM     18  C   UNL     1     141.334  94.616 135.796  1.00  0.00     0.157 C 
BRANCH  18  19
ATOM     19  C   UNL     1     140.511  95.704 135.107  1.00  0.00     0.228 C 
ATOM     20  O   UNL     1     140.077  96.642 135.783  1.00  0.00    -0.274 OA
ATOM     21  N   UNL     1     140.269  95.612 133.743  1.00  0.00    -0.348 N 
ATOM     22  C   UNL     1     140.774  94.562 132.872  1.00  0.00     0.146 C 
ATOM     23  C   UNL     1     139.364  96.566 133.122  1.00  0.00     0.146 C 
ENDBRANCH  18  19
ENDBRANCH  10  18
TORSDOF 3
ENDMDL
MODEL 9
REMARK VINA RESULT:    -6.119      2.745      7.132
REMARK INTER + INTRA:          -7.912
REMARK INTER:                  -6.965
REMARK INTRA:                  -0.946
REMARK UNBOUND:                -0.720
REMARK SMILES Cc1ccc(-c2nc3ccc(C)cn3c2CC(=O)N(C)C)cc1
REMARK SMILES IDX 6 1 7 2 8 3 9 4 10 5 11 6 12 7 13 8 14 9 15 10 5 11 2 12
REMARK SMILES IDX 3 13 23 14 4 15 22 16 1 17 16 18 17 19 18 20 19 21 20 22
REMARK SMILES IDX 21 23
REMARK H PARENT
ROOT
ATOM      1  C   UNL     1     141.505  96.635 133.186  1.00  0.00     0.093 A 
ATOM      2  N   UNL     1     141.671  97.520 132.149  1.00  0.00    -0.228 NA
ATOM      3  C   UNL     1     140.907  98.547 132.441  1.00  0.00     0.137 A 
ATOM      4  C   UNL     1     140.651  99.747 131.720  1.00  0.00     0.048 C 
ATOM      5  C   UNL     1     139.786 100.654 132.211  1.00  0.00     0.009 C 
ATOM      6  C   UNL     1     139.093 100.442 133.478  1.00  0.00    -0.034 C 
ATOM      7  C   UNL     1     138.141 101.498 133.944  1.00  0.00     0.046 C 
ATOM      8  C   UNL     1     139.346  99.310 134.164  1.00  0.00     0.096 C 
ATOM      9  N   UNL     1     140.253  98.375 133.658  1.00  0.00    -0.303 N 
ATOM     10  C   UNL     1     140.690  97.163 134.178  1.00  0.00     0.060 A 
ENDROOT
BRANCH   1  11
ATOM     11  C   UNL     1     142.177  95.349 133.196  1.00  0.00     0.002 A 
ATOM     12  C   UNL     1     143.531  92.879 133.220  1.00  0.00    -0.051 A 
ATOM     13  C   UNL     1     144.209  94.061 133.534  1.00  0.00     0.004 A 
ATOM     14  C   UNL     1     142.170  92.940 132.896  1.00  0.00     0.004 A 
ATOM     15  C   UNL     1     143.539  95.287 133.510  1.00  0.00     0.011 A 
ATOM     16  C   UNL     1     141.501  94.167 132.873  1.00  0.00     0.011 A 
ATOM     17  C   UNL     1     144.241  91.558 133.272  1.00  0.00     0.044 C 
ENDBRANCH   1  11
BRANCH  10  18
ATOM     18  C   UNL     1     140.293  96.649 135.527  1.00  0.00     0.157 C 
BRANCH  18  19
ATOM     19  C   UNL     1     141.235  97.149 136.622  1.00  0.00     0.228 C 
ATOM     20  O   UNL     1     141.176  98.333 136.966  1.00  0.00    -0.274 OA
ATOM     21  N   UNL     1     142.134  96.263 137.201  1.00  0.00    -0.348 N 
ATOM     22  C   UNL     1     142.241  94.849 136.879  1.00  0.00     0.146 C 
ATOM     23  C   UNL     1     143.126  96.776 138.133  1.00  0.00     0.146 C 
ENDBRANCH  18  19
ENDBRANCH  10  18
TORSDOF 3
ENDMDL
