MODEL 1
REMARK VINA RESULT:    -6.901      0.000      0.000
REMARK INTER + INTRA:          -7.916
REMARK INTER:                  -7.304
REMARK INTRA:                  -0.612
REMARK UNBOUND:                -0.612
REMARK SMILES Cc1nnc2n1-c1ccc(Cl)cc1C(c1ccccc1Cl)=NC2
REMARK SMILES IDX 1 1 2 2 3 3 4 4 5 5 6 6 7 7 8 8 9 9 10 10 11 11 12 12 13 13
REMARK SMILES IDX 14 14 22 15 23 16 15 17 16 18 20 19 17 20 19 21 18 22 21 23
REMARK H PARENT
ROOT
ATOM      1  C   UNL     1     141.849  95.445 137.273  1.00  0.00     0.090 C 
ATOM      2  C   UNL     1     141.394  96.786 136.837  1.00  0.00     0.134 A 
ATOM      3  N   UNL     1     140.863  97.683 137.644  1.00  0.00    -0.135 NA
ATOM      4  N   UNL     1     140.420  98.731 136.890  1.00  0.00    -0.133 NA
ATOM      5  C   UNL     1     140.690  98.467 135.630  1.00  0.00     0.159 A 
ATOM      6  N   UNL     1     141.349  97.261 135.533  1.00  0.00    -0.281 N 
ATOM      7  C   UNL     1     141.899  96.712 134.345  1.00  0.00     0.058 A 
ATOM      8  C   UNL     1     143.097  95.979 134.423  1.00  0.00     0.029 A 
ATOM      9  C   UNL     1     143.695  95.467 133.270  1.00  0.00     0.023 A 
ATOM     10  C   UNL     1     143.109  95.689 132.031  1.00  0.00     0.041 A 
ATOM     11  Cl  UNL     1     143.852  95.066 130.610  1.00  0.00    -0.084 Cl
ATOM     12  C   UNL     1     141.925  96.415 131.931  1.00  0.00     0.033 A 
ATOM     13  C   UNL     1     141.302  96.929 133.084  1.00  0.00     0.026 A 
ATOM     14  C   UNL     1     139.976  97.602 132.900  1.00  0.00     0.076 C 
ATOM     15  N   UNL     1     139.567  98.659 133.511  1.00  0.00    -0.276 NA
ATOM     16  C   UNL     1     140.437  99.336 134.462  1.00  0.00     0.220 C 
ENDROOT
BRANCH  14  17
ATOM     17  C   UNL     1     139.013  96.974 131.957  1.00  0.00     0.019 A 
ATOM     18  C   UNL     1     138.377  95.794 132.362  1.00  0.00     0.012 A 
ATOM     19  C   UNL     1     138.720  97.547 130.714  1.00  0.00     0.050 A 
ATOM     20  C   UNL     1     137.455  95.179 131.515  1.00  0.00     0.001 A 
ATOM     21  C   UNL     1     137.795  96.923 129.873  1.00  0.00     0.021 A 
ATOM     22  C   UNL     1     137.164  95.742 130.273  1.00  0.00     0.002 A 
ATOM     23  Cl  UNL     1     139.507  98.972 130.142  1.00  0.00    -0.084 Cl
ENDBRANCH  14  17
TORSDOF 1
ENDMDL
MODEL 2
REMARK VINA RESULT:    -6.786      2.963      6.080
REMARK INTER + INTRA:          -7.794
REMARK INTER:                  -7.168
REMARK INTRA:                  -0.626
REMARK UNBOUND:                -0.612
REMARK SMILES Cc1nnc2n1-c1ccc(Cl)cc1C(c1ccccc1Cl)=NC2
REMARK SMILES IDX 1 1 2 2 3 3 4 4 5 5 6 6 7 7 8 8 9 9 10 10 11 11 12 12 13 13
REMARK SMILES IDX 14 14 22 15 23 16 15 17 16 18 20 19 17 20 19 21 18 22 21 23
REMARK H PARENT
ROOT
ATOM      1  C   UNL     1     139.234  97.843 133.574  1.00  0.00     0.090 C 
ATOM      2  C   UNL     1     140.504  98.239 132.919  1.00  0.00     0.134 A 
ATOM      3  N   UNL     1     140.584  98.707 131.690  1.00  0.00    -0.135 NA
ATOM      4  N   UNL     1     141.903  98.820 131.358  1.00  0.00    -0.133 NA
ATOM      5  C   UNL     1     142.616  98.424 132.390  1.00  0.00     0.159 A 
ATOM      6  N   UNL     1     141.784  98.081 133.433  1.00  0.00    -0.281 N 
ATOM      7  C   UNL     1     142.202  97.722 134.741  1.00  0.00     0.058 A 
ATOM      8  C   UNL     1     141.416  98.113 135.840  1.00  0.00     0.029 A 
ATOM      9  C   UNL     1     141.820  97.823 137.144  1.00  0.00     0.023 A 
ATOM     10  C   UNL     1     143.014  97.149 137.364  1.00  0.00     0.041 A 
ATOM     11  Cl  UNL     1     143.516  96.800 138.971  1.00  0.00    -0.084 Cl
ATOM     12  C   UNL     1     143.808  96.755 136.290  1.00  0.00     0.033 A 
ATOM     13  C   UNL     1     143.411  97.030 134.968  1.00  0.00     0.026 A 
ATOM     14  C   UNL     1     144.267  96.476 133.870  1.00  0.00     0.076 C 
ATOM     15  N   UNL     1     144.567  97.067 132.766  1.00  0.00    -0.276 NA
ATOM     16  C   UNL     1     144.089  98.418 132.507  1.00  0.00     0.220 C 
ENDROOT
BRANCH  14  17
ATOM     17  C   UNL     1     144.790  95.095 134.038  1.00  0.00     0.019 A 
ATOM     18  C   UNL     1     146.163  94.938 134.265  1.00  0.00     0.012 A 
ATOM     19  C   UNL     1     143.947  93.978 134.000  1.00  0.00     0.050 A 
ATOM     20  C   UNL     1     146.695  93.661 134.444  1.00  0.00     0.001 A 
ATOM     21  C   UNL     1     144.489  92.703 134.179  1.00  0.00     0.021 A 
ATOM     22  C   UNL     1     145.859  92.545 134.400  1.00  0.00     0.002 A 
ATOM     23  Cl  UNL     1     142.256  94.105 133.674  1.00  0.00    -0.084 Cl
ENDBRANCH  14  17
TORSDOF 1
ENDMDL
MODEL 3
REMARK VINA RESULT:    -6.719      2.687      6.254
REMARK INTER + INTRA:          -7.724
REMARK INTER:                  -7.095
REMARK INTRA:                  -0.628
REMARK UNBOUND:                -0.612
REMARK SMILES Cc1nnc2n1-c1ccc(Cl)cc1C(c1ccccc1Cl)=NC2
REMARK SMILES IDX 1 1 2 2 3 3 4 4 5 5 6 6 7 7 8 8 9 9 10 10 11 11 12 12 13 13
REMARK SMILES IDX 14 14 22 15 23 16 15 17 16 18 20 19 17 20 19 21 18 22 21 23
REMARK H PARENT
ROOT
ATOM      1  C   UNL     1     138.280  95.528 130.790  1.00  0.00     0.090 C 
ATOM      2  C   UNL     1     139.742  95.738 130.668  1.00  0.00     0.134 A 
ATOM      3  N   UNL     1     140.523  95.038 129.870  1.00  0.00    -0.135 NA
ATOM      4  N   UNL     1     141.818  95.387 130.122  1.00  0.00    -0.133 NA
ATOM      5  C   UNL     1     141.816  96.300 131.069  1.00  0.00     0.159 A 
ATOM      6  N   UNL     1     140.520  96.599 131.431  1.00  0.00    -0.281 N 
ATOM      7  C   UNL     1     140.128  97.620 132.336  1.00  0.00     0.058 A 
ATOM      8  C   UNL     1     138.938  98.328 132.092  1.00  0.00     0.029 A 
ATOM      9  C   UNL     1     138.545  99.372 132.931  1.00  0.00     0.023 A 
ATOM     10  C   UNL     1     139.341  99.725 134.013  1.00  0.00     0.041 A 
ATOM     11  Cl  UNL     1     138.861 101.018 135.040  1.00  0.00    -0.084 Cl
ATOM     12  C   UNL     1     140.525  99.039 134.270  1.00  0.00     0.033 A 
ATOM     13  C   UNL     1     140.930  97.976 133.442  1.00  0.00     0.026 A 
ATOM     14  C   UNL     1     142.158  97.221 133.852  1.00  0.00     0.076 C 
ATOM     15  N   UNL     1     143.072  96.769 133.067  1.00  0.00    -0.276 NA
ATOM     16  C   UNL     1     142.985  97.005 131.633  1.00  0.00     0.220 C 
ENDROOT
BRANCH  14  17
ATOM     17  C   UNL     1     142.326  96.920 135.298  1.00  0.00     0.019 A 
ATOM     18  C   UNL     1     143.223  97.708 136.030  1.00  0.00     0.012 A 
ATOM     19  C   UNL     1     141.600  95.903 135.927  1.00  0.00     0.050 A 
ATOM     20  C   UNL     1     143.401  97.470 137.393  1.00  0.00     0.001 A 
ATOM     21  C   UNL     1     141.786  95.671 137.293  1.00  0.00     0.021 A 
ATOM     22  C   UNL     1     142.684  96.452 138.024  1.00  0.00     0.002 A 
ATOM     23  Cl  UNL     1     140.518  94.868 135.067  1.00  0.00    -0.084 Cl
ENDBRANCH  14  17
TORSDOF 1
ENDMDL
MODEL 4
REMARK VINA RESULT:    -6.684      2.565      5.387
REMARK INTER + INTRA:          -7.686
REMARK INTER:                  -7.199
REMARK INTRA:                  -0.487
REMARK UNBOUND:                -0.612
REMARK SMILES Cc1nnc2n1-c1ccc(Cl)cc1C(c1ccccc1Cl)=NC2
REMARK SMILES IDX 1 1 2 2 3 3 4 4 5 5 6 6 7 7 8 8 9 9 10 10 11 11 12 12 13 13
REMARK SMILES IDX 14 14 22 15 23 16 15 17 16 18 20 19 17 20 19 21 18 22 21 23
REMARK H PARENT
ROOT
ATOM      1  C   UNL     1     140.805  99.837 131.371  1.00  0.00     0.090 C 
ATOM      2  C   UNL     1     140.068  98.580 131.640  1.00  0.00     0.134 A 
ATOM      3  N   UNL     1     138.782  98.414 131.400  1.00  0.00    -0.135 NA
ATOM      4  N   UNL     1     138.404  97.204 131.905  1.00  0.00    -0.133 NA
ATOM      5  C   UNL     1     139.463  96.640 132.444  1.00  0.00     0.159 A 
ATOM      6  N   UNL     1     140.565  97.448 132.271  1.00  0.00    -0.281 N 
ATOM      7  C   UNL     1     141.900  97.112 132.618  1.00  0.00     0.058 A 
ATOM      8  C   UNL     1     142.952  97.563 131.800  1.00  0.00     0.029 A 
ATOM      9  C   UNL     1     144.273  97.211 132.080  1.00  0.00     0.023 A 
ATOM     10  C   UNL     1     144.556  96.399 133.170  1.00  0.00     0.041 A 
ATOM     11  Cl  UNL     1     146.183  95.957 133.509  1.00  0.00    -0.084 Cl
ATOM     12  C   UNL     1     143.529  95.939 133.991  1.00  0.00     0.033 A 
ATOM     13  C   UNL     1     142.192  96.293 133.730  1.00  0.00     0.026 A 
ATOM     14  C   UNL     1     141.162  95.847 134.723  1.00  0.00     0.076 C 
ATOM     15  N   UNL     1     139.978  95.421 134.454  1.00  0.00    -0.276 NA
ATOM     16  C   UNL     1     139.542  95.304 133.069  1.00  0.00     0.220 C 
ENDROOT
BRANCH  14  17
ATOM     17  C   UNL     1     141.512  95.944 136.165  1.00  0.00     0.019 A 
ATOM     18  C   UNL     1     142.118  94.834 136.767  1.00  0.00     0.012 A 
ATOM     19  C   UNL     1     141.276  97.109 136.903  1.00  0.00     0.050 A 
ATOM     20  C   UNL     1     142.477  94.886 138.114  1.00  0.00     0.001 A 
ATOM     21  C   UNL     1     141.638  97.152 138.252  1.00  0.00     0.021 A 
ATOM     22  C   UNL     1     142.237  96.043 138.855  1.00  0.00     0.002 A 
ATOM     23  Cl  UNL     1     140.489  98.490 136.229  1.00  0.00    -0.084 Cl
ENDBRANCH  14  17
TORSDOF 1
ENDMDL
MODEL 5
REMARK VINA RESULT:    -6.505      2.916      5.094
REMARK INTER + INTRA:          -7.498
REMARK INTER:                  -6.863
REMARK INTRA:                  -0.635
REMARK UNBOUND:                -0.612
REMARK SMILES Cc1nnc2n1-c1ccc(Cl)cc1C(c1ccccc1Cl)=NC2
REMARK SMILES IDX 1 1 2 2 3 3 4 4 5 5 6 6 7 7 8 8 9 9 10 10 11 11 12 12 13 13
REMARK SMILES IDX 14 14 22 15 23 16 15 17 16 18 20 19 17 20 19 21 18 22 21 23
REMARK H PARENT
ROOT
ATOM      1  C   UNL     1     138.509  99.492 133.229  1.00  0.00     0.090 C 
ATOM      2  C   UNL     1     139.824  99.502 132.546  1.00  0.00     0.134 A 
ATOM      3  N   UNL     1     140.049 100.094 131.390  1.00  0.00    -0.135 NA
ATOM      4  N   UNL     1     141.312  99.776 130.983  1.00  0.00    -0.133 NA
ATOM      5  C   UNL     1     141.848  98.996 131.897  1.00  0.00     0.159 A 
ATOM      6  N   UNL     1     140.966  98.818 132.940  1.00  0.00    -0.281 N 
ATOM      7  C   UNL     1     141.245  98.135 134.153  1.00  0.00     0.058 A 
ATOM      8  C   UNL     1     140.675  98.608 135.349  1.00  0.00     0.029 A 
ATOM      9  C   UNL     1     140.966  97.995 136.568  1.00  0.00     0.023 A 
ATOM     10  C   UNL     1     141.835  96.912 136.607  1.00  0.00     0.041 A 
ATOM     11  Cl  UNL     1     142.201  96.163 138.111  1.00  0.00    -0.084 Cl
ATOM     12  C   UNL     1     142.412  96.430 135.434  1.00  0.00     0.033 A 
ATOM     13  C   UNL     1     142.122  97.030 134.195  1.00  0.00     0.026 A 
ATOM     14  C   UNL     1     142.697  96.382 132.972  1.00  0.00     0.076 C 
ATOM     15  N   UNL     1     143.174  96.988 131.942  1.00  0.00    -0.276 NA
ATOM     16  C   UNL     1     143.219  98.443 131.906  1.00  0.00     0.220 C 
ENDROOT
BRANCH  14  17
ATOM     17  C   UNL     1     142.682  94.897 132.911  1.00  0.00     0.019 A 
ATOM     18  C   UNL     1     143.887  94.220 133.139  1.00  0.00     0.012 A 
ATOM     19  C   UNL     1     141.504  94.182 132.661  1.00  0.00     0.050 A 
ATOM     20  C   UNL     1     143.915  92.826 133.106  1.00  0.00     0.001 A 
ATOM     21  C   UNL     1     141.543  92.786 132.629  1.00  0.00     0.021 A 
ATOM     22  C   UNL     1     142.745  92.110 132.851  1.00  0.00     0.002 A 
ATOM     23  Cl  UNL     1     140.002  94.962 132.325  1.00  0.00    -0.084 Cl
ENDBRANCH  14  17
TORSDOF 1
ENDMDL
MODEL 6
REMARK VINA RESULT:    -6.461      3.166      4.257
REMARK INTER + INTRA:          -7.451
REMARK INTER:                  -6.822
REMARK INTRA:                  -0.629
REMARK UNBOUND:                -0.612
REMARK SMILES Cc1nnc2n1-c1ccc(Cl)cc1C(c1ccccc1Cl)=NC2
REMARK SMILES IDX 1 1 2 2 3 3 4 4 5 5 6 6 7 7 8 8 9 9 10 10 11 11 12 12 13 13
REMARK SMILES IDX 14 14 22 15 23 16 15 17 16 18 20 19 17 20 19 21 18 22 21 23
REMARK H PARENT
ROOT
ATOM      1  C   UNL     1     140.062  97.620 138.245  1.00  0.00     0.090 C 
ATOM      2  C   UNL     1     140.440  98.296 136.982  1.00  0.00     0.134 A 
ATOM      3  N   UNL     1     139.724  99.244 136.411  1.00  0.00    -0.135 NA
ATOM      4  N   UNL     1     140.279  99.528 135.197  1.00  0.00    -0.133 NA
ATOM      5  C   UNL     1     141.331  98.756 135.040  1.00  0.00     0.159 A 
ATOM      6  N   UNL     1     141.513  97.976 136.162  1.00  0.00    -0.281 N 
ATOM      7  C   UNL     1     142.613  97.109 136.398  1.00  0.00     0.058 A 
ATOM      8  C   UNL     1     143.104  96.972 137.708  1.00  0.00     0.029 A 
ATOM      9  C   UNL     1     144.215  96.169 137.972  1.00  0.00     0.023 A 
ATOM     10  C   UNL     1     144.850  95.504 136.931  1.00  0.00     0.041 A 
ATOM     11  Cl  UNL     1     146.224  94.523 137.256  1.00  0.00    -0.084 Cl
ATOM     12  C   UNL     1     144.381  95.629 135.626  1.00  0.00     0.033 A 
ATOM     13  C   UNL     1     143.256  96.426 135.343  1.00  0.00     0.026 A 
ATOM     14  C   UNL     1     142.751  96.417 133.932  1.00  0.00     0.076 C 
ATOM     15  N   UNL     1     142.297  97.430 133.280  1.00  0.00    -0.276 NA
ATOM     16  C   UNL     1     142.271  98.747 133.900  1.00  0.00     0.220 C 
ENDROOT
BRANCH  14  17
ATOM     17  C   UNL     1     142.726  95.113 133.220  1.00  0.00     0.019 A 
ATOM     18  C   UNL     1     141.694  94.218 133.530  1.00  0.00     0.012 A 
ATOM     19  C   UNL     1     143.679  94.785 132.249  1.00  0.00     0.050 A 
ATOM     20  C   UNL     1     141.622  92.989 132.875  1.00  0.00     0.001 A 
ATOM     21  C   UNL     1     143.600  93.550 131.599  1.00  0.00     0.021 A 
ATOM     22  C   UNL     1     142.574  92.655 131.912  1.00  0.00     0.002 A 
ATOM     23  Cl  UNL     1     145.001  95.824 131.861  1.00  0.00    -0.084 Cl
ENDBRANCH  14  17
TORSDOF 1
ENDMDL
MODEL 7
REMARK VINA RESULT:    -6.224      1.687      1.984
REMARK INTER + INTRA:          -7.200
REMARK INTER:                  -6.684
REMARK INTRA:                  -0.515
REMARK UNBOUND:                -0.612
REMARK SMILES Cc1nnc2n1-c1ccc(Cl)cc1C(c1ccccc1Cl)=NC2
REMARK SMILES IDX 1 1 2 2 3 3 4 4 5 5 6 6 7 7 8 8 9 9 10 10 11 11 12 12 13 13
REMARK SMILES IDX 14 14 22 15 23 16 15 17 16 18 20 19 17 20 19 21 18 22 21 23
REMARK H PARENT
ROOT
ATOM      1  C   UNL     1     142.270  95.726 137.936  1.00  0.00     0.090 C 
ATOM      2  C   UNL     1     141.543  96.914 137.430  1.00  0.00     0.134 A 
ATOM      3  N   UNL     1     140.663  97.595 138.136  1.00  0.00    -0.135 NA
ATOM      4  N   UNL     1     140.080  98.520 137.319  1.00  0.00    -0.133 NA
ATOM      5  C   UNL     1     140.613  98.399 136.123  1.00  0.00     0.159 A 
ATOM      6  N   UNL     1     141.583  97.421 136.138  1.00  0.00    -0.281 N 
ATOM      7  C   UNL     1     142.448  97.096 135.060  1.00  0.00     0.058 A 
ATOM      8  C   UNL     1     143.771  96.711 135.339  1.00  0.00     0.029 A 
ATOM      9  C   UNL     1     144.666  96.434 134.304  1.00  0.00     0.023 A 
ATOM     10  C   UNL     1     144.252  96.549 132.983  1.00  0.00     0.041 A 
ATOM     11  Cl  UNL     1     145.358  96.216 131.708  1.00  0.00    -0.084 Cl
ATOM     12  C   UNL     1     142.947  96.932 132.685  1.00  0.00     0.033 A 
ATOM     13  C   UNL     1     142.029  97.205 133.716  1.00  0.00     0.026 A 
ATOM     14  C   UNL     1     140.617  97.504 133.311  1.00  0.00     0.076 C 
ATOM     15  N   UNL     1     139.841  98.381 133.844  1.00  0.00    -0.276 NA
ATOM     16  C   UNL     1     140.326  99.221 134.930  1.00  0.00     0.220 C 
ENDROOT
BRANCH  14  17
ATOM     17  C   UNL     1     140.029  96.685 132.218  1.00  0.00     0.019 A 
ATOM     18  C   UNL     1     139.621  97.346 131.052  1.00  0.00     0.012 A 
ATOM     19  C   UNL     1     139.905  95.295 132.325  1.00  0.00     0.050 A 
ATOM     20  C   UNL     1     139.078  96.615 129.996  1.00  0.00     0.001 A 
ATOM     21  C   UNL     1     139.359  94.571 131.261  1.00  0.00     0.021 A 
ATOM     22  C   UNL     1     138.947  95.230 130.100  1.00  0.00     0.002 A 
ATOM     23  Cl  UNL     1     140.344  94.433 133.754  1.00  0.00    -0.084 Cl
ENDBRANCH  14  17
TORSDOF 1
ENDMDL
MODEL 8
REMARK VINA RESULT:    -6.223      3.101      4.780
REMARK INTER + INTRA:          -7.199
REMARK INTER:                  -6.584
REMARK INTRA:                  -0.615
REMARK UNBOUND:                -0.612
REMARK SMILES Cc1nnc2n1-c1ccc(Cl)cc1C(c1ccccc1Cl)=NC2
REMARK SMILES IDX 1 1 2 2 3 3 4 4 5 5 6 6 7 7 8 8 9 9 10 10 11 11 12 12 13 13
REMARK SMILES IDX 14 14 22 15 23 16 15 17 16 18 20 19 17 20 19 21 18 22 21 23
REMARK H PARENT
ROOT
ATOM      1  C   UNL     1     145.509  94.810 135.251  1.00  0.00     0.090 C 
ATOM      2  C   UNL     1     144.418  94.236 134.428  1.00  0.00     0.134 A 
ATOM      3  N   UNL     1     144.611  93.386 133.439  1.00  0.00    -0.135 NA
ATOM      4  N   UNL     1     143.418  93.186 132.806  1.00  0.00    -0.133 NA
ATOM      5  C   UNL     1     142.508  93.911 133.419  1.00  0.00     0.159 A 
ATOM      6  N   UNL     1     143.072  94.571 134.488  1.00  0.00    -0.281 N 
ATOM      7  C   UNL     1     142.370  95.349 135.445  1.00  0.00     0.058 A 
ATOM      8  C   UNL     1     142.800  95.335 136.784  1.00  0.00     0.029 A 
ATOM      9  C   UNL     1     142.104  96.047 137.763  1.00  0.00     0.023 A 
ATOM     10  C   UNL     1     140.970  96.770 137.417  1.00  0.00     0.041 A 
ATOM     11  Cl  UNL     1     140.109  97.639 138.625  1.00  0.00    -0.084 Cl
ATOM     12  C   UNL     1     140.526  96.794 136.097  1.00  0.00     0.033 A 
ATOM     13  C   UNL     1     141.221  96.091 135.096  1.00  0.00     0.026 A 
ATOM     14  C   UNL     1     140.741  96.260 133.686  1.00  0.00     0.076 C 
ATOM     15  N   UNL     1     140.677  95.340 132.788  1.00  0.00    -0.276 NA
ATOM     16  C   UNL     1     141.063  93.974 133.113  1.00  0.00     0.220 C 
ENDROOT
BRANCH  14  17
ATOM     17  C   UNL     1     140.338  97.625 133.257  1.00  0.00     0.019 A 
ATOM     18  C   UNL     1     138.970  97.925 133.230  1.00  0.00     0.012 A 
ATOM     19  C   UNL     1     141.284  98.598 132.913  1.00  0.00     0.050 A 
ATOM     20  C   UNL     1     138.548  99.199 132.849  1.00  0.00     0.001 A 
ATOM     21  C   UNL     1     140.851  99.870 132.531  1.00  0.00     0.021 A 
ATOM     22  C   UNL     1     139.487 100.170 132.499  1.00  0.00     0.002 A 
ATOM     23  Cl  UNL     1     142.978  98.271 132.880  1.00  0.00    -0.084 Cl
ENDBRANCH  14  17
TORSDOF 1
ENDMDL
MODEL 9
REMARK VINA RESULT:    -6.110      2.816      5.475
REMARK INTER + INTRA:          -7.079
REMARK INTER:                  -6.555
REMARK INTRA:                  -0.524
REMARK UNBOUND:                -0.612
REMARK SMILES Cc1nnc2n1-c1ccc(Cl)cc1C(c1ccccc1Cl)=NC2
REMARK SMILES IDX 1 1 2 2 3 3 4 4 5 5 6 6 7 7 8 8 9 9 10 10 11 11 12 12 13 13
REMARK SMILES IDX 14 14 22 15 23 16 15 17 16 18 20 19 17 20 19 21 18 22 21 23
REMARK H PARENT
ROOT
ATOM      1  C   UNL     1     144.218  93.194 131.643  1.00  0.00     0.090 C 
ATOM      2  C   UNL     1     144.511  94.644 131.724  1.00  0.00     0.134 A 
ATOM      3  N   UNL     1     145.716  95.161 131.584  1.00  0.00    -0.135 NA
ATOM      4  N   UNL     1     145.647  96.494 131.869  1.00  0.00    -0.133 NA
ATOM      5  C   UNL     1     144.400  96.780 132.174  1.00  0.00     0.159 A 
ATOM      6  N   UNL     1     143.617  95.652 132.059  1.00  0.00    -0.281 N 
ATOM      7  C   UNL     1     142.205  95.606 132.196  1.00  0.00     0.058 A 
ATOM      8  C   UNL     1     141.469  94.724 131.386  1.00  0.00     0.029 A 
ATOM      9  C   UNL     1     140.075  94.687 131.456  1.00  0.00     0.023 A 
ATOM     10  C   UNL     1     139.404  95.537 132.325  1.00  0.00     0.041 A 
ATOM     11  Cl  UNL     1     137.686  95.498 132.403  1.00  0.00    -0.084 Cl
ATOM     12  C   UNL     1     140.114  96.421 133.134  1.00  0.00     0.033 A 
ATOM     13  C   UNL     1     141.520  96.464 133.084  1.00  0.00     0.026 A 
ATOM     14  C   UNL     1     142.209  97.363 134.064  1.00  0.00     0.076 C 
ATOM     15  N   UNL     1     143.248  98.088 133.833  1.00  0.00    -0.276 NA
ATOM     16  C   UNL     1     143.843  98.108 132.504  1.00  0.00     0.220 C 
ENDROOT
BRANCH  14  17
ATOM     17  C   UNL     1     141.681  97.398 135.453  1.00  0.00     0.019 A 
ATOM     18  C   UNL     1     142.175  96.457 136.365  1.00  0.00     0.012 A 
ATOM     19  C   UNL     1     140.740  98.352 135.859  1.00  0.00     0.050 A 
ATOM     20  C   UNL     1     141.718  96.463 137.683  1.00  0.00     0.001 A 
ATOM     21  C   UNL     1     140.288  98.350 137.182  1.00  0.00     0.021 A 
ATOM     22  C   UNL     1     140.775  97.407 138.091  1.00  0.00     0.002 A 
ATOM     23  Cl  UNL     1     140.059  99.504 134.770  1.00  0.00    -0.084 Cl
ENDBRANCH  14  17
TORSDOF 1
ENDMDL
