MODEL 1
REMARK VINA RESULT:    -7.757      0.000      0.000
REMARK INTER + INTRA:          -7.928
REMARK INTER:                  -8.210
REMARK INTRA:                   0.283
REMARK UNBOUND:                 0.283
REMARK SMILES CN1C(=O)CN=C(c2ccccc2)c2cc(Cl)ccc21
REMARK SMILES IDX 1 1 2 2 3 3 4 4 5 5 6 6 7 7 14 8 15 9 16 10 17 11 18 12
REMARK SMILES IDX 19 13 20 14 8 15 9 16 13 17 10 18 12 19 11 20
REMARK H PARENT
ROOT
ATOM      1  C   UNL     1     141.894  97.592 137.319  1.00  0.00     0.153 C 
ATOM      2  N   UNL     1     142.897  96.920 138.134  1.00  0.00    -0.313 N 
ATOM      3  C   UNL     1     144.054  96.481 137.477  1.00  0.00     0.248 C 
ATOM      4  O   UNL     1     144.261  96.707 136.281  1.00  0.00    -0.272 OA
ATOM      5  C   UNL     1     145.022  95.623 138.279  1.00  0.00     0.243 C 
ATOM      6  N   UNL     1     145.717  96.466 139.246  1.00  0.00    -0.274 NA
ATOM      7  C   UNL     1     145.040  96.924 140.245  1.00  0.00     0.075 C 
ATOM      8  C   UNL     1     143.609  96.589 140.510  1.00  0.00     0.026 A 
ATOM      9  C   UNL     1     143.271  96.248 141.835  1.00  0.00     0.033 A 
ATOM     10  C   UNL     1     141.943  96.038 142.185  1.00  0.00     0.041 A 
ATOM     11  Cl  UNL     1     141.537  95.639 143.807  1.00  0.00    -0.084 Cl
ATOM     12  C   UNL     1     140.942  96.161 141.231  1.00  0.00     0.023 A 
ATOM     13  C   UNL     1     141.277  96.473 139.909  1.00  0.00     0.028 A 
ATOM     14  C   UNL     1     142.615  96.665 139.513  1.00  0.00     0.053 A 
ENDROOT
BRANCH   7  15
ATOM     15  C   UNL     1     145.752  97.842 141.192  1.00  0.00     0.000 A 
ATOM     16  C   UNL     1     145.065  98.334 142.307  1.00  0.00     0.010 A 
ATOM     17  C   UNL     1     147.095  98.188 140.996  1.00  0.00     0.010 A 
ATOM     18  C   UNL     1     145.706  99.190 143.204  1.00  0.00     0.001 A 
ATOM     19  C   UNL     1     147.733  99.045 141.895  1.00  0.00     0.001 A 
ATOM     20  C   UNL     1     147.038  99.549 142.994  1.00  0.00     0.000 A 
ENDBRANCH   7  15
TORSDOF 1
ENDMDL
MODEL 2
REMARK VINA RESULT:    -7.288      4.093      5.466
REMARK INTER + INTRA:          -7.431
REMARK INTER:                  -7.431
REMARK INTRA:                  -0.001
REMARK UNBOUND:                 0.283
REMARK SMILES CN1C(=O)CN=C(c2ccccc2)c2cc(Cl)ccc21
REMARK SMILES IDX 1 1 2 2 3 3 4 4 5 5 6 6 7 7 14 8 15 9 16 10 17 11 18 12
REMARK SMILES IDX 19 13 20 14 8 15 9 16 13 17 10 18 12 19 11 20
REMARK H PARENT
ROOT
ATOM      1  C   UNL     1     140.841  94.985 134.063  1.00  0.00     0.153 C 
ATOM      2  N   UNL     1     141.411  95.846 135.092  1.00  0.00    -0.313 N 
ATOM      3  C   UNL     1     140.683  96.994 135.428  1.00  0.00     0.248 C 
ATOM      4  O   UNL     1     139.578  97.243 134.938  1.00  0.00    -0.272 OA
ATOM      5  C   UNL     1     141.353  97.988 136.367  1.00  0.00     0.243 C 
ATOM      6  N   UNL     1     141.374  97.430 137.715  1.00  0.00    -0.274 NA
ATOM      7  C   UNL     1     142.161  96.434 137.944  1.00  0.00     0.075 C 
ATOM      8  C   UNL     1     143.102  95.860 136.937  1.00  0.00     0.026 A 
ATOM      9  C   UNL     1     144.416  95.598 137.371  1.00  0.00     0.033 A 
ATOM     10  C   UNL     1     145.316  94.958 136.528  1.00  0.00     0.041 A 
ATOM     11  Cl  UNL     1     146.913  94.626 137.071  1.00  0.00    -0.084 Cl
ATOM     12  C   UNL     1     144.925  94.575 135.252  1.00  0.00     0.023 A 
ATOM     13  C   UNL     1     143.629  94.857 134.808  1.00  0.00     0.028 A 
ATOM     14  C   UNL     1     142.700  95.530 135.626  1.00  0.00     0.053 A 
ENDROOT
BRANCH   7  15
ATOM     15  C   UNL     1     142.120  95.831 139.316  1.00  0.00     0.000 A 
ATOM     16  C   UNL     1     141.486  96.533 140.348  1.00  0.00     0.010 A 
ATOM     17  C   UNL     1     142.675  94.572 139.574  1.00  0.00     0.010 A 
ATOM     18  C   UNL     1     141.433  95.994 141.634  1.00  0.00     0.001 A 
ATOM     19  C   UNL     1     142.620  94.036 140.862  1.00  0.00     0.001 A 
ATOM     20  C   UNL     1     142.005  94.748 141.891  1.00  0.00     0.000 A 
ENDBRANCH   7  15
TORSDOF 1
ENDMDL
MODEL 3
REMARK VINA RESULT:    -7.129      2.771      4.283
REMARK INTER + INTRA:          -7.263
REMARK INTER:                  -6.923
REMARK INTRA:                  -0.340
REMARK UNBOUND:                 0.283
REMARK SMILES CN1C(=O)CN=C(c2ccccc2)c2cc(Cl)ccc21
REMARK SMILES IDX 1 1 2 2 3 3 4 4 5 5 6 6 7 7 14 8 15 9 16 10 17 11 18 12
REMARK SMILES IDX 19 13 20 14 8 15 9 16 13 17 10 18 12 19 11 20
REMARK H PARENT
ROOT
ATOM      1  C   UNL     1     143.794  97.202 134.821  1.00  0.00     0.153 C 
ATOM      2  N   UNL     1     142.990  96.489 135.805  1.00  0.00    -0.313 N 
ATOM      3  C   UNL     1     143.224  95.114 135.934  1.00  0.00     0.248 C 
ATOM      4  O   UNL     1     144.112  94.533 135.304  1.00  0.00    -0.272 OA
ATOM      5  C   UNL     1     142.270  94.330 136.824  1.00  0.00     0.243 C 
ATOM      6  N   UNL     1     142.546  94.655 138.220  1.00  0.00    -0.274 NA
ATOM      7  C   UNL     1     142.230  95.833 138.640  1.00  0.00     0.075 C 
ATOM      8  C   UNL     1     141.537  96.861 137.808  1.00  0.00     0.026 A 
ATOM      9  C   UNL     1     140.459  97.542 138.406  1.00  0.00     0.033 A 
ATOM     10  C   UNL     1     139.839  98.591 137.740  1.00  0.00     0.041 A 
ATOM     11  Cl  UNL     1     138.535  99.429 138.484  1.00  0.00    -0.084 Cl
ATOM     12  C   UNL     1     140.276  98.973 136.479  1.00  0.00     0.023 A 
ATOM     13  C   UNL     1     141.329  98.281 135.871  1.00  0.00     0.028 A 
ATOM     14  C   UNL     1     141.962  97.195 136.506  1.00  0.00     0.053 A 
ENDROOT
BRANCH   7  15
ATOM     15  C   UNL     1     142.582  96.172 140.057  1.00  0.00     0.000 A 
ATOM     16  C   UNL     1     143.805  96.798 140.323  1.00  0.00     0.010 A 
ATOM     17  C   UNL     1     141.698  95.902 141.110  1.00  0.00     0.010 A 
ATOM     18  C   UNL     1     144.156  97.123 141.633  1.00  0.00     0.001 A 
ATOM     19  C   UNL     1     142.053  96.229 142.420  1.00  0.00     0.001 A 
ATOM     20  C   UNL     1     143.282  96.834 142.682  1.00  0.00     0.000 A 
ENDBRANCH   7  15
TORSDOF 1
ENDMDL
MODEL 4
REMARK VINA RESULT:    -6.982      4.651      7.871
REMARK INTER + INTRA:          -7.107
REMARK INTER:                  -6.683
REMARK INTRA:                  -0.425
REMARK UNBOUND:                 0.283
REMARK SMILES CN1C(=O)CN=C(c2ccccc2)c2cc(Cl)ccc21
REMARK SMILES IDX 1 1 2 2 3 3 4 4 5 5 6 6 7 7 14 8 15 9 16 10 17 11 18 12
REMARK SMILES IDX 19 13 20 14 8 15 9 16 13 17 10 18 12 19 11 20
REMARK H PARENT
ROOT
ATOM      1  C   UNL     1     144.562  95.148 135.484  1.00  0.00     0.153 C 
ATOM      2  N   UNL     1     143.990  96.452 135.177  1.00  0.00    -0.313 N 
ATOM      3  C   UNL     1     144.671  97.235 134.236  1.00  0.00     0.248 C 
ATOM      4  O   UNL     1     145.669  96.827 133.635  1.00  0.00    -0.272 OA
ATOM      5  C   UNL     1     144.185  98.664 134.044  1.00  0.00     0.243 C 
ATOM      6  N   UNL     1     142.917  98.643 133.322  1.00  0.00    -0.274 NA
ATOM      7  C   UNL     1     141.876  98.200 133.943  1.00  0.00     0.075 C 
ATOM      8  C   UNL     1     141.873  97.773 135.373  1.00  0.00     0.026 A 
ATOM      9  C   UNL     1     140.812  98.239 136.174  1.00  0.00     0.033 A 
ATOM     10  C   UNL     1     140.674  97.792 137.482  1.00  0.00     0.041 A 
ATOM     11  Cl  UNL     1     139.366  98.352 138.447  1.00  0.00    -0.084 Cl
ATOM     12  C   UNL     1     141.584  96.886 138.008  1.00  0.00     0.023 A 
ATOM     13  C   UNL     1     142.655  96.442 137.225  1.00  0.00     0.028 A 
ATOM     14  C   UNL     1     142.840  96.895 135.904  1.00  0.00     0.053 A 
ENDROOT
BRANCH   7  15
ATOM     15  C   UNL     1     140.597  98.123 133.165  1.00  0.00     0.000 A 
ATOM     16  C   UNL     1     140.179  96.884 132.665  1.00  0.00     0.010 A 
ATOM     17  C   UNL     1     139.803  99.258 132.959  1.00  0.00     0.010 A 
ATOM     18  C   UNL     1     138.992  96.786 131.938  1.00  0.00     0.001 A 
ATOM     19  C   UNL     1     138.615  99.155 132.231  1.00  0.00     0.001 A 
ATOM     20  C   UNL     1     138.214  97.922 131.717  1.00  0.00     0.000 A 
ENDBRANCH   7  15
TORSDOF 1
ENDMDL
MODEL 5
REMARK VINA RESULT:    -6.936      4.159      6.433
REMARK INTER + INTRA:          -7.058
REMARK INTER:                  -6.767
REMARK INTRA:                  -0.292
REMARK UNBOUND:                 0.283
REMARK SMILES CN1C(=O)CN=C(c2ccccc2)c2cc(Cl)ccc21
REMARK SMILES IDX 1 1 2 2 3 3 4 4 5 5 6 6 7 7 14 8 15 9 16 10 17 11 18 12
REMARK SMILES IDX 19 13 20 14 8 15 9 16 13 17 10 18 12 19 11 20
REMARK H PARENT
ROOT
ATOM      1  C   UNL     1     138.540  96.493 133.599  1.00  0.00     0.153 C 
ATOM      2  N   UNL     1     139.883  96.924 133.965  1.00  0.00    -0.313 N 
ATOM      3  C   UNL     1     140.090  98.302 134.100  1.00  0.00     0.248 C 
ATOM      4  O   UNL     1     139.173  99.122 133.987  1.00  0.00    -0.272 OA
ATOM      5  C   UNL     1     141.523  98.770 134.303  1.00  0.00     0.243 C 
ATOM      6  N   UNL     1     141.949  98.428 135.656  1.00  0.00    -0.274 NA
ATOM      7  C   UNL     1     142.144  97.182 135.931  1.00  0.00     0.075 C 
ATOM      8  C   UNL     1     142.029  96.077 134.934  1.00  0.00     0.026 A 
ATOM      9  C   UNL     1     143.060  95.117 134.928  1.00  0.00     0.033 A 
ATOM     10  C   UNL     1     142.967  93.997 134.112  1.00  0.00     0.041 A 
ATOM     11  Cl  UNL     1     144.221  92.821 134.123  1.00  0.00    -0.084 Cl
ATOM     12  C   UNL     1     141.859  93.818 133.296  1.00  0.00     0.023 A 
ATOM     13  C   UNL     1     140.846  94.783 133.280  1.00  0.00     0.028 A 
ATOM     14  C   UNL     1     140.921  95.944 134.073  1.00  0.00     0.053 A 
ENDROOT
BRANCH   7  15
ATOM     15  C   UNL     1     142.515  96.844 137.344  1.00  0.00     0.000 A 
ATOM     16  C   UNL     1     143.869  96.800 137.698  1.00  0.00     0.010 A 
ATOM     17  C   UNL     1     141.536  96.602 138.315  1.00  0.00     0.010 A 
ATOM     18  C   UNL     1     144.241  96.487 139.006  1.00  0.00     0.001 A 
ATOM     19  C   UNL     1     141.912  96.290 139.623  1.00  0.00     0.001 A 
ATOM     20  C   UNL     1     143.262  96.228 139.967  1.00  0.00     0.000 A 
ENDBRANCH   7  15
TORSDOF 1
ENDMDL
MODEL 6
REMARK VINA RESULT:    -6.897      3.235      5.828
REMARK INTER + INTRA:          -7.017
REMARK INTER:                  -6.984
REMARK INTRA:                  -0.033
REMARK UNBOUND:                 0.283
REMARK SMILES CN1C(=O)CN=C(c2ccccc2)c2cc(Cl)ccc21
REMARK SMILES IDX 1 1 2 2 3 3 4 4 5 5 6 6 7 7 14 8 15 9 16 10 17 11 18 12
REMARK SMILES IDX 19 13 20 14 8 15 9 16 13 17 10 18 12 19 11 20
REMARK H PARENT
ROOT
ATOM      1  C   UNL     1     141.165  95.552 141.121  1.00  0.00     0.153 C 
ATOM      2  N   UNL     1     142.182  96.154 140.269  1.00  0.00    -0.313 N 
ATOM      3  C   UNL     1     143.487  96.195 140.775  1.00  0.00     0.248 C 
ATOM      4  O   UNL     1     143.791  95.688 141.859  1.00  0.00    -0.272 OA
ATOM      5  C   UNL     1     144.516  96.979 139.974  1.00  0.00     0.243 C 
ATOM      6  N   UNL     1     144.853  96.229 138.768  1.00  0.00    -0.274 NA
ATOM      7  C   UNL     1     143.959  96.140 137.842  1.00  0.00     0.075 C 
ATOM      8  C   UNL     1     142.628  96.814 137.896  1.00  0.00     0.026 A 
ATOM      9  C   UNL     1     142.208  97.486 136.731  1.00  0.00     0.033 A 
ATOM     10  C   UNL     1     140.934  98.036 136.663  1.00  0.00     0.041 A 
ATOM     11  Cl  UNL     1     140.423  98.839 135.231  1.00  0.00    -0.084 Cl
ATOM     12  C   UNL     1     140.070  97.930 137.743  1.00  0.00     0.023 A 
ATOM     13  C   UNL     1     140.493  97.288 138.912  1.00  0.00     0.028 A 
ATOM     14  C   UNL     1     141.787  96.743 139.025  1.00  0.00     0.053 A 
ENDROOT
BRANCH   7  15
ATOM     15  C   UNL     1     144.299  95.310 136.641  1.00  0.00     0.000 A 
ATOM     16  C   UNL     1     145.637  94.977 136.402  1.00  0.00     0.010 A 
ATOM     17  C   UNL     1     143.302  94.840 135.777  1.00  0.00     0.010 A 
ATOM     18  C   UNL     1     145.979  94.205 135.291  1.00  0.00     0.001 A 
ATOM     19  C   UNL     1     143.648  94.068 134.667  1.00  0.00     0.001 A 
ATOM     20  C   UNL     1     144.985  93.755 134.421  1.00  0.00     0.000 A 
ENDBRANCH   7  15
TORSDOF 1
ENDMDL
MODEL 7
REMARK VINA RESULT:    -6.803      5.153      7.804
REMARK INTER + INTRA:          -6.918
REMARK INTER:                  -6.457
REMARK INTRA:                  -0.461
REMARK UNBOUND:                 0.283
REMARK SMILES CN1C(=O)CN=C(c2ccccc2)c2cc(Cl)ccc21
REMARK SMILES IDX 1 1 2 2 3 3 4 4 5 5 6 6 7 7 14 8 15 9 16 10 17 11 18 12
REMARK SMILES IDX 19 13 20 14 8 15 9 16 13 17 10 18 12 19 11 20
REMARK H PARENT
ROOT
ATOM      1  C   UNL     1     138.942  96.832 131.677  1.00  0.00     0.153 C 
ATOM      2  N   UNL     1     139.915  97.533 132.506  1.00  0.00    -0.313 N 
ATOM      3  C   UNL     1     139.446  98.632 133.237  1.00  0.00     0.248 C 
ATOM      4  O   UNL     1     138.256  98.960 133.246  1.00  0.00    -0.272 OA
ATOM      5  C   UNL     1     140.486  99.476 133.960  1.00  0.00     0.243 C 
ATOM      6  N   UNL     1     140.981  98.735 135.115  1.00  0.00    -0.274 NA
ATOM      7  C   UNL     1     141.730  97.707 134.897  1.00  0.00     0.075 C 
ATOM      8  C   UNL     1     142.178  97.269 133.542  1.00  0.00     0.026 A 
ATOM      9  C   UNL     1     143.538  96.933 133.399  1.00  0.00     0.033 A 
ATOM     10  C   UNL     1     144.006  96.406 132.202  1.00  0.00     0.041 A 
ATOM     11  Cl  UNL     1     145.664  95.983 132.041  1.00  0.00    -0.084 Cl
ATOM     12  C   UNL     1     143.136  96.210 131.139  1.00  0.00     0.023 A 
ATOM     13  C   UNL     1     141.790  96.568 131.268  1.00  0.00     0.028 A 
ATOM     14  C   UNL     1     141.287  97.130 132.458  1.00  0.00     0.053 A 
ENDROOT
BRANCH   7  15
ATOM     15  C   UNL     1     142.175  96.919 136.092  1.00  0.00     0.000 A 
ATOM     16  C   UNL     1     142.893  97.566 137.104  1.00  0.00     0.010 A 
ATOM     17  C   UNL     1     141.859  95.561 136.226  1.00  0.00     0.010 A 
ATOM     18  C   UNL     1     143.318  96.855 138.227  1.00  0.00     0.001 A 
ATOM     19  C   UNL     1     142.286  94.853 137.351  1.00  0.00     0.001 A 
ATOM     20  C   UNL     1     143.019  95.498 138.348  1.00  0.00     0.000 A 
ENDBRANCH   7  15
TORSDOF 1
ENDMDL
MODEL 8
REMARK VINA RESULT:    -6.790      5.575      8.403
REMARK INTER + INTRA:          -6.905
REMARK INTER:                  -6.427
REMARK INTRA:                  -0.477
REMARK UNBOUND:                 0.283
REMARK SMILES CN1C(=O)CN=C(c2ccccc2)c2cc(Cl)ccc21
REMARK SMILES IDX 1 1 2 2 3 3 4 4 5 5 6 6 7 7 14 8 15 9 16 10 17 11 18 12
REMARK SMILES IDX 19 13 20 14 8 15 9 16 13 17 10 18 12 19 11 20
REMARK H PARENT
ROOT
ATOM      1  C   UNL     1     140.433  96.651 130.180  1.00  0.00     0.153 C 
ATOM      2  N   UNL     1     139.778  96.739 131.478  1.00  0.00    -0.313 N 
ATOM      3  C   UNL     1     139.172  95.572 131.961  1.00  0.00     0.248 C 
ATOM      4  O   UNL     1     139.241  94.496 131.361  1.00  0.00    -0.272 OA
ATOM      5  C   UNL     1     138.334  95.699 133.225  1.00  0.00     0.243 C 
ATOM      6  N   UNL     1     139.222  95.883 134.368  1.00  0.00    -0.274 NA
ATOM      7  C   UNL     1     139.846  97.008 134.473  1.00  0.00     0.075 C 
ATOM      8  C   UNL     1     139.665  98.157 133.538  1.00  0.00     0.026 A 
ATOM      9  C   UNL     1     139.508  99.431 134.118  1.00  0.00     0.033 A 
ATOM     10  C   UNL     1     139.451 100.563 133.315  1.00  0.00     0.041 A 
ATOM     11  Cl  UNL     1     139.276 102.116 134.032  1.00  0.00    -0.084 Cl
ATOM     12  C   UNL     1     139.546 100.445 131.936  1.00  0.00     0.023 A 
ATOM     13  C   UNL     1     139.675  99.179 131.354  1.00  0.00     0.028 A 
ATOM     14  C   UNL     1     139.708  98.008 132.136  1.00  0.00     0.053 A 
ENDROOT
BRANCH   7  15
ATOM     15  C   UNL     1     140.805  97.154 135.617  1.00  0.00     0.000 A 
ATOM     16  C   UNL     1     142.174  97.261 135.346  1.00  0.00     0.010 A 
ATOM     17  C   UNL     1     140.352  97.216 136.941  1.00  0.00     0.010 A 
ATOM     18  C   UNL     1     143.086  97.399 136.393  1.00  0.00     0.001 A 
ATOM     19  C   UNL     1     141.269  97.353 137.985  1.00  0.00     0.001 A 
ATOM     20  C   UNL     1     142.634  97.440 137.712  1.00  0.00     0.000 A 
ENDBRANCH   7  15
TORSDOF 1
ENDMDL
MODEL 9
REMARK VINA RESULT:    -6.479      5.578      7.856
REMARK INTER + INTRA:          -6.575
REMARK INTER:                  -6.095
REMARK INTRA:                  -0.480
REMARK UNBOUND:                 0.283
REMARK SMILES CN1C(=O)CN=C(c2ccccc2)c2cc(Cl)ccc21
REMARK SMILES IDX 1 1 2 2 3 3 4 4 5 5 6 6 7 7 14 8 15 9 16 10 17 11 18 12
REMARK SMILES IDX 19 13 20 14 8 15 9 16 13 17 10 18 12 19 11 20
REMARK H PARENT
ROOT
ATOM      1  C   UNL     1     139.442 100.215 134.637  1.00  0.00     0.153 C 
ATOM      2  N   UNL     1     139.633  98.803 134.331  1.00  0.00    -0.313 N 
ATOM      3  C   UNL     1     138.931  98.295 133.231  1.00  0.00     0.248 C 
ATOM      4  O   UNL     1     138.235  99.009 132.504  1.00  0.00    -0.272 OA
ATOM      5  C   UNL     1     138.982  96.789 133.013  1.00  0.00     0.243 C 
ATOM      6  N   UNL     1     140.306  96.425 132.519  1.00  0.00    -0.274 NA
ATOM      7  C   UNL     1     141.299  96.504 133.339  1.00  0.00     0.075 C 
ATOM      8  C   UNL     1     141.169  96.879 134.779  1.00  0.00     0.026 A 
ATOM      9  C   UNL     1     141.870  96.085 135.708  1.00  0.00     0.033 A 
ATOM     10  C   UNL     1     141.894  96.439 137.051  1.00  0.00     0.041 A 
ATOM     11  Cl  UNL     1     142.766  95.475 138.176  1.00  0.00    -0.084 Cl
ATOM     12  C   UNL     1     141.225  97.575 137.485  1.00  0.00     0.023 A 
ATOM     13  C   UNL     1     140.505  98.350 136.570  1.00  0.00     0.028 A 
ATOM     14  C   UNL     1     140.437  98.005 135.205  1.00  0.00     0.053 A 
ENDROOT
BRANCH   7  15
ATOM     15  C   UNL     1     142.661  96.190 132.797  1.00  0.00     0.000 A 
ATOM     16  C   UNL     1     142.922  94.899 132.322  1.00  0.00     0.010 A 
ATOM     17  C   UNL     1     143.660  97.169 132.728  1.00  0.00     0.010 A 
ATOM     18  C   UNL     1     144.181  94.581 131.812  1.00  0.00     0.001 A 
ATOM     19  C   UNL     1     144.918  96.848 132.217  1.00  0.00     0.001 A 
ATOM     20  C   UNL     1     145.180  95.555 131.764  1.00  0.00     0.000 A 
ENDBRANCH   7  15
TORSDOF 1
ENDMDL
