MODEL 1
REMARK VINA RESULT:   -10.130      0.000      0.000
REMARK INTER + INTRA:         -10.460
REMARK INTER:                 -10.723
REMARK INTRA:                   0.263
REMARK UNBOUND:                 0.263
REMARK SMILES CN1C(=O)CN=C(c2ccccc2)c2cc(Cl)ccc21
REMARK SMILES IDX 1 1 2 2 3 3 4 4 5 5 6 6 7 7 14 8 15 9 16 10 17 11 18 12
REMARK SMILES IDX 19 13 20 14 8 15 9 16 13 17 10 18 12 19 11 20
REMARK H PARENT
ROOT
ATOM      1  C   UNL     1     116.920 160.689 111.932  1.00  0.00     0.153 C 
ATOM      2  N   UNL     1     117.613 159.440 111.644  1.00  0.00    -0.313 N 
ATOM      3  C   UNL     1     117.324 158.350 112.474  1.00  0.00     0.248 C 
ATOM      4  O   UNL     1     116.474 158.408 113.368  1.00  0.00    -0.272 OA
ATOM      5  C   UNL     1     118.172 157.099 112.296  1.00  0.00     0.243 C 
ATOM      6  N   UNL     1     117.789 156.438 111.053  1.00  0.00    -0.274 NA
ATOM      7  C   UNL     1     118.107 157.010 109.941  1.00  0.00     0.075 C 
ATOM      8  C   UNL     1     118.903 158.270 109.845  1.00  0.00     0.026 A 
ATOM      9  C   UNL     1     119.947 158.292 108.901  1.00  0.00     0.033 A 
ATOM     10  C   UNL     1     120.656 159.464 108.671  1.00  0.00     0.041 A 
ATOM     11  Cl  UNL     1     121.919 159.488 107.504  1.00  0.00    -0.084 Cl
ATOM     12  C   UNL     1     120.340 160.620 109.371  1.00  0.00     0.023 A 
ATOM     13  C   UNL     1     119.321 160.595 110.329  1.00  0.00     0.028 A 
ATOM     14  C   UNL     1     118.601 159.417 110.608  1.00  0.00     0.053 A 
ENDROOT
BRANCH   7  15
ATOM     15  C   UNL     1     117.647 156.351 108.676  1.00  0.00     0.000 A 
ATOM     16  C   UNL     1     116.343 155.847 108.607  1.00  0.00     0.010 A 
ATOM     17  C   UNL     1     118.486 156.258 107.558  1.00  0.00     0.010 A 
ATOM     18  C   UNL     1     115.890 155.229 107.441  1.00  0.00     0.001 A 
ATOM     19  C   UNL     1     118.029 155.639 106.393  1.00  0.00     0.001 A 
ATOM     20  C   UNL     1     116.736 155.121 106.336  1.00  0.00     0.000 A 
ENDBRANCH   7  15
TORSDOF 1
ENDMDL
MODEL 2
REMARK VINA RESULT:    -9.436      3.004      5.963
REMARK INTER + INTRA:          -9.725
REMARK INTER:                  -9.970
REMARK INTRA:                   0.245
REMARK UNBOUND:                 0.263
REMARK SMILES CN1C(=O)CN=C(c2ccccc2)c2cc(Cl)ccc21
REMARK SMILES IDX 1 1 2 2 3 3 4 4 5 5 6 6 7 7 14 8 15 9 16 10 17 11 18 12
REMARK SMILES IDX 19 13 20 14 8 15 9 16 13 17 10 18 12 19 11 20
REMARK H PARENT
ROOT
ATOM      1  C   UNL     1     117.801 157.020 106.775  1.00  0.00     0.153 C 
ATOM      2  N   UNL     1     118.533 157.593 107.897  1.00  0.00    -0.313 N 
ATOM      3  C   UNL     1     119.544 158.511 107.589  1.00  0.00     0.248 C 
ATOM      4  O   UNL     1     119.771 158.880 106.433  1.00  0.00    -0.272 OA
ATOM      5  C   UNL     1     120.430 158.977 108.735  1.00  0.00     0.243 C 
ATOM      6  N   UNL     1     119.668 159.884 109.588  1.00  0.00    -0.274 NA
ATOM      7  C   UNL     1     118.720 159.384 110.307  1.00  0.00     0.075 C 
ATOM      8  C   UNL     1     118.399 157.927 110.374  1.00  0.00     0.026 A 
ATOM      9  C   UNL     1     118.187 157.382 111.655  1.00  0.00     0.033 A 
ATOM     10  C   UNL     1     117.771 156.064 111.794  1.00  0.00     0.041 A 
ATOM     11  Cl  UNL     1     117.497 155.411 113.360  1.00  0.00    -0.084 Cl
ATOM     12  C   UNL     1     117.564 155.276 110.670  1.00  0.00     0.023 A 
ATOM     13  C   UNL     1     117.800 155.807 109.397  1.00  0.00     0.028 A 
ATOM     14  C   UNL     1     118.249 157.130 109.221  1.00  0.00     0.053 A 
ENDROOT
BRANCH   7  15
ATOM     15  C   UNL     1     117.905 160.340 111.124  1.00  0.00     0.000 A 
ATOM     16  C   UNL     1     118.113 161.716 110.969  1.00  0.00     0.010 A 
ATOM     17  C   UNL     1     116.924 159.883 112.013  1.00  0.00     0.010 A 
ATOM     18  C   UNL     1     117.367 162.626 111.718  1.00  0.00     0.001 A 
ATOM     19  C   UNL     1     116.180 160.798 112.761  1.00  0.00     0.001 A 
ATOM     20  C   UNL     1     116.404 162.167 112.617  1.00  0.00     0.000 A 
ENDBRANCH   7  15
TORSDOF 1
ENDMDL
MODEL 3
REMARK VINA RESULT:    -9.243      2.554      3.357
REMARK INTER + INTRA:          -9.520
REMARK INTER:                  -9.045
REMARK INTRA:                  -0.476
REMARK UNBOUND:                 0.263
REMARK SMILES CN1C(=O)CN=C(c2ccccc2)c2cc(Cl)ccc21
REMARK SMILES IDX 1 1 2 2 3 3 4 4 5 5 6 6 7 7 14 8 15 9 16 10 17 11 18 12
REMARK SMILES IDX 19 13 20 14 8 15 9 16 13 17 10 18 12 19 11 20
REMARK H PARENT
ROOT
ATOM      1  C   UNL     1     114.508 156.813 114.599  1.00  0.00     0.153 C 
ATOM      2  N   UNL     1     115.753 156.558 113.887  1.00  0.00    -0.313 N 
ATOM      3  C   UNL     1     116.362 155.316 114.104  1.00  0.00     0.248 C 
ATOM      4  O   UNL     1     115.846 154.441 114.806  1.00  0.00    -0.272 OA
ATOM      5  C   UNL     1     117.748 155.111 113.509  1.00  0.00     0.243 C 
ATOM      6  N   UNL     1     117.628 154.961 112.063  1.00  0.00    -0.274 NA
ATOM      7  C   UNL     1     117.307 156.003 111.372  1.00  0.00     0.075 C 
ATOM      8  C   UNL     1     117.119 157.366 111.952  1.00  0.00     0.026 A 
ATOM      9  C   UNL     1     117.725 158.437 111.266  1.00  0.00     0.033 A 
ATOM     10  C   UNL     1     117.500 159.746 111.675  1.00  0.00     0.041 A 
ATOM     11  Cl  UNL     1     118.229 161.049 110.823  1.00  0.00    -0.084 Cl
ATOM     12  C   UNL     1     116.678 160.004 112.763  1.00  0.00     0.023 A 
ATOM     13  C   UNL     1     116.096 158.942 113.463  1.00  0.00     0.028 A 
ATOM     14  C   UNL     1     116.326 157.602 113.093  1.00  0.00     0.053 A 
ENDROOT
BRANCH   7  15
ATOM     15  C   UNL     1     117.123 155.816 109.896  1.00  0.00     0.000 A 
ATOM     16  C   UNL     1     115.852 156.002 109.341  1.00  0.00     0.010 A 
ATOM     17  C   UNL     1     118.202 155.490 109.065  1.00  0.00     0.010 A 
ATOM     18  C   UNL     1     115.655 155.834 107.970  1.00  0.00     0.001 A 
ATOM     19  C   UNL     1     118.001 155.322 107.694  1.00  0.00     0.001 A 
ATOM     20  C   UNL     1     116.728 155.490 107.148  1.00  0.00     0.000 A 
ENDBRANCH   7  15
TORSDOF 1
ENDMDL
MODEL 4
REMARK VINA RESULT:    -8.810      1.844      4.703
REMARK INTER + INTRA:          -9.062
REMARK INTER:                  -8.986
REMARK INTRA:                  -0.076
REMARK UNBOUND:                 0.263
REMARK SMILES CN1C(=O)CN=C(c2ccccc2)c2cc(Cl)ccc21
REMARK SMILES IDX 1 1 2 2 3 3 4 4 5 5 6 6 7 7 14 8 15 9 16 10 17 11 18 12
REMARK SMILES IDX 19 13 20 14 8 15 9 16 13 17 10 18 12 19 11 20
REMARK H PARENT
ROOT
ATOM      1  C   UNL     1     118.053 155.986 113.492  1.00  0.00     0.153 C 
ATOM      2  N   UNL     1     117.620 157.076 112.628  1.00  0.00    -0.313 N 
ATOM      3  C   UNL     1     117.112 158.219 113.258  1.00  0.00     0.248 C 
ATOM      4  O   UNL     1     117.092 158.342 114.486  1.00  0.00    -0.272 OA
ATOM      5  C   UNL     1     116.493 159.285 112.365  1.00  0.00     0.243 C 
ATOM      6  N   UNL     1     117.556 159.978 111.644  1.00  0.00    -0.274 NA
ATOM      7  C   UNL     1     118.178 159.331 110.717  1.00  0.00     0.075 C 
ATOM      8  C   UNL     1     117.834 157.942 110.289  1.00  0.00     0.026 A 
ATOM      9  C   UNL     1     117.763 157.704 108.903  1.00  0.00     0.033 A 
ATOM     10  C   UNL     1     117.564 156.415 108.425  1.00  0.00     0.041 A 
ATOM     11  Cl  UNL     1     117.496 156.128 106.731  1.00  0.00    -0.084 Cl
ATOM     12  C   UNL     1     117.432 155.355 109.312  1.00  0.00     0.023 A 
ATOM     13  C   UNL     1     117.475 155.592 110.690  1.00  0.00     0.028 A 
ATOM     14  C   UNL     1     117.647 156.891 111.209  1.00  0.00     0.053 A 
ENDROOT
BRANCH   7  15
ATOM     15  C   UNL     1     119.310 160.036 110.033  1.00  0.00     0.000 A 
ATOM     16  C   UNL     1     119.381 161.433 110.100  1.00  0.00     0.010 A 
ATOM     17  C   UNL     1     120.310 159.323 109.359  1.00  0.00     0.010 A 
ATOM     18  C   UNL     1     120.425 162.113 109.472  1.00  0.00     0.001 A 
ATOM     19  C   UNL     1     121.353 160.007 108.732  1.00  0.00     0.001 A 
ATOM     20  C   UNL     1     121.407 161.400 108.784  1.00  0.00     0.000 A 
ENDBRANCH   7  15
TORSDOF 1
ENDMDL
MODEL 5
REMARK VINA RESULT:    -7.904      3.277      4.855
REMARK INTER + INTRA:          -8.103
REMARK INTER:                  -7.895
REMARK INTRA:                  -0.208
REMARK UNBOUND:                 0.263
REMARK SMILES CN1C(=O)CN=C(c2ccccc2)c2cc(Cl)ccc21
REMARK SMILES IDX 1 1 2 2 3 3 4 4 5 5 6 6 7 7 14 8 15 9 16 10 17 11 18 12
REMARK SMILES IDX 19 13 20 14 8 15 9 16 13 17 10 18 12 19 11 20
REMARK H PARENT
ROOT
ATOM      1  C   UNL     1     113.293 157.141 115.282  1.00  0.00     0.153 C 
ATOM      2  N   UNL     1     114.715 157.341 115.035  1.00  0.00    -0.313 N 
ATOM      3  C   UNL     1     115.592 156.406 115.600  1.00  0.00     0.248 C 
ATOM      4  O   UNL     1     115.192 155.417 116.221  1.00  0.00    -0.272 OA
ATOM      5  C   UNL     1     117.081 156.705 115.500  1.00  0.00     0.243 C 
ATOM      6  N   UNL     1     117.517 156.496 114.124  1.00  0.00    -0.274 NA
ATOM      7  C   UNL     1     117.122 157.339 113.230  1.00  0.00     0.075 C 
ATOM      8  C   UNL     1     116.304 158.553 113.528  1.00  0.00     0.026 A 
ATOM      9  C   UNL     1     116.712 159.758 112.923  1.00  0.00     0.033 A 
ATOM     10  C   UNL     1     115.938 160.903 113.057  1.00  0.00     0.041 A 
ATOM     11  Cl  UNL     1     116.433 162.366 112.301  1.00  0.00    -0.084 Cl
ATOM     12  C   UNL     1     114.759 160.867 113.789  1.00  0.00     0.023 A 
ATOM     13  C   UNL     1     114.365 159.679 114.413  1.00  0.00     0.028 A 
ATOM     14  C   UNL     1     115.140 158.506 114.322  1.00  0.00     0.053 A 
ENDROOT
BRANCH   7  15
ATOM     15  C   UNL     1     117.524 157.072 111.811  1.00  0.00     0.000 A 
ATOM     16  C   UNL     1     116.781 156.157 111.056  1.00  0.00     0.010 A 
ATOM     17  C   UNL     1     118.605 157.741 111.224  1.00  0.00     0.010 A 
ATOM     18  C   UNL     1     117.135 155.890 109.732  1.00  0.00     0.001 A 
ATOM     19  C   UNL     1     118.955 157.471 109.900  1.00  0.00     0.001 A 
ATOM     20  C   UNL     1     118.225 156.544 109.157  1.00  0.00     0.000 A 
ENDBRANCH   7  15
TORSDOF 1
ENDMDL
MODEL 6
REMARK VINA RESULT:    -7.858      3.056      6.194
REMARK INTER + INTRA:          -8.055
REMARK INTER:                  -8.264
REMARK INTRA:                   0.209
REMARK UNBOUND:                 0.263
REMARK SMILES CN1C(=O)CN=C(c2ccccc2)c2cc(Cl)ccc21
REMARK SMILES IDX 1 1 2 2 3 3 4 4 5 5 6 6 7 7 14 8 15 9 16 10 17 11 18 12
REMARK SMILES IDX 19 13 20 14 8 15 9 16 13 17 10 18 12 19 11 20
REMARK H PARENT
ROOT
ATOM      1  C   UNL     1     116.082 156.229 108.875  1.00  0.00     0.153 C 
ATOM      2  N   UNL     1     117.063 157.040 109.584  1.00  0.00    -0.313 N 
ATOM      3  C   UNL     1     118.058 157.649 108.808  1.00  0.00     0.248 C 
ATOM      4  O   UNL     1     118.076 157.570 107.577  1.00  0.00    -0.272 OA
ATOM      5  C   UNL     1     119.186 158.347 109.554  1.00  0.00     0.243 C 
ATOM      6  N   UNL     1     118.679 159.585 110.135  1.00  0.00    -0.274 NA
ATOM      7  C   UNL     1     117.860 159.495 111.128  1.00  0.00     0.075 C 
ATOM      8  C   UNL     1     117.452 158.207 111.763  1.00  0.00     0.026 A 
ATOM      9  C   UNL     1     117.461 158.163 113.171  1.00  0.00     0.033 A 
ATOM     10  C   UNL     1     116.984 157.041 113.838  1.00  0.00     0.041 A 
ATOM     11  Cl  UNL     1     116.981 157.001 115.556  1.00  0.00    -0.084 Cl
ATOM     12  C   UNL     1     116.499 155.957 113.120  1.00  0.00     0.023 A 
ATOM     13  C   UNL     1     116.515 155.987 111.721  1.00  0.00     0.028 A 
ATOM     14  C   UNL     1     117.016 157.096 111.013  1.00  0.00     0.053 A 
ENDROOT
BRANCH   7  15
ATOM     15  C   UNL     1     117.297 160.775 111.669  1.00  0.00     0.000 A 
ATOM     16  C   UNL     1     116.334 160.719 112.683  1.00  0.00     0.010 A 
ATOM     17  C   UNL     1     117.740 162.019 111.200  1.00  0.00     0.010 A 
ATOM     18  C   UNL     1     115.795 161.897 113.203  1.00  0.00     0.001 A 
ATOM     19  C   UNL     1     117.198 163.194 111.724  1.00  0.00     0.001 A 
ATOM     20  C   UNL     1     116.224 163.133 112.720  1.00  0.00     0.000 A 
ENDBRANCH   7  15
TORSDOF 1
ENDMDL
MODEL 7
REMARK VINA RESULT:    -7.355      3.398      6.129
REMARK INTER + INTRA:          -7.522
REMARK INTER:                  -7.805
REMARK INTRA:                   0.283
REMARK UNBOUND:                 0.263
REMARK SMILES CN1C(=O)CN=C(c2ccccc2)c2cc(Cl)ccc21
REMARK SMILES IDX 1 1 2 2 3 3 4 4 5 5 6 6 7 7 14 8 15 9 16 10 17 11 18 12
REMARK SMILES IDX 19 13 20 14 8 15 9 16 13 17 10 18 12 19 11 20
REMARK H PARENT
ROOT
ATOM      1  C   UNL     1     117.838 156.523 105.777  1.00  0.00     0.153 C 
ATOM      2  N   UNL     1     118.976 156.862 106.621  1.00  0.00    -0.313 N 
ATOM      3  C   UNL     1     120.230 156.915 106.000  1.00  0.00     0.248 C 
ATOM      4  O   UNL     1     120.372 156.754 104.785  1.00  0.00    -0.272 OA
ATOM      5  C   UNL     1     121.443 157.090 106.903  1.00  0.00     0.243 C 
ATOM      6  N   UNL     1     121.471 158.461 107.402  1.00  0.00    -0.274 NA
ATOM      7  C   UNL     1     120.576 158.810 108.263  1.00  0.00     0.075 C 
ATOM      8  C   UNL     1     119.556 157.880 108.833  1.00  0.00     0.026 A 
ATOM      9  C   UNL     1     119.358 157.931 110.227  1.00  0.00     0.033 A 
ATOM     10  C   UNL     1     118.347 157.183 110.817  1.00  0.00     0.041 A 
ATOM     11  Cl  UNL     1     118.101 157.264 112.516  1.00  0.00    -0.084 Cl
ATOM     12  C   UNL     1     117.528 156.379 110.037  1.00  0.00     0.023 A 
ATOM     13  C   UNL     1     117.739 156.306 108.656  1.00  0.00     0.028 A 
ATOM     14  C   UNL     1     118.772 157.029 108.028  1.00  0.00     0.053 A 
ENDROOT
BRANCH   7  15
ATOM     15  C   UNL     1     120.579 160.240 108.713  1.00  0.00     0.000 A 
ATOM     16  C   UNL     1     119.644 160.653 109.669  1.00  0.00     0.010 A 
ATOM     17  C   UNL     1     121.518 161.155 108.220  1.00  0.00     0.010 A 
ATOM     18  C   UNL     1     119.627 161.979 110.105  1.00  0.00     0.001 A 
ATOM     19  C   UNL     1     121.497 162.480 108.658  1.00  0.00     0.001 A 
ATOM     20  C   UNL     1     120.550 162.892 109.596  1.00  0.00     0.000 A 
ENDBRANCH   7  15
TORSDOF 1
ENDMDL
MODEL 8
REMARK VINA RESULT:    -7.227      4.151      6.557
REMARK INTER + INTRA:          -7.387
REMARK INTER:                  -7.604
REMARK INTRA:                   0.217
REMARK UNBOUND:                 0.263
REMARK SMILES CN1C(=O)CN=C(c2ccccc2)c2cc(Cl)ccc21
REMARK SMILES IDX 1 1 2 2 3 3 4 4 5 5 6 6 7 7 14 8 15 9 16 10 17 11 18 12
REMARK SMILES IDX 19 13 20 14 8 15 9 16 13 17 10 18 12 19 11 20
REMARK H PARENT
ROOT
ATOM      1  C   UNL     1     115.886 160.437 117.615  1.00  0.00     0.153 C 
ATOM      2  N   UNL     1     115.450 160.291 116.233  1.00  0.00    -0.313 N 
ATOM      3  C   UNL     1     115.145 161.468 115.538  1.00  0.00     0.248 C 
ATOM      4  O   UNL     1     115.301 162.587 116.035  1.00  0.00    -0.272 OA
ATOM      5  C   UNL     1     114.518 161.316 114.160  1.00  0.00     0.243 C 
ATOM      6  N   UNL     1     115.537 160.855 113.222  1.00  0.00    -0.274 NA
ATOM      7  C   UNL     1     115.964 159.643 113.341  1.00  0.00     0.075 C 
ATOM      8  C   UNL     1     115.432 158.662 114.333  1.00  0.00     0.026 A 
ATOM      9  C   UNL     1     115.153 157.365 113.858  1.00  0.00     0.033 A 
ATOM     10  C   UNL     1     114.768 156.365 114.741  1.00  0.00     0.041 A 
ATOM     11  Cl  UNL     1     114.446 154.781 114.156  1.00  0.00    -0.084 Cl
ATOM     12  C   UNL     1     114.653 156.638 116.097  1.00  0.00     0.023 A 
ATOM     13  C   UNL     1     114.903 157.931 116.569  1.00  0.00     0.028 A 
ATOM     14  C   UNL     1     115.269 158.976 115.698  1.00  0.00     0.053 A 
ENDROOT
BRANCH   7  15
ATOM     15  C   UNL     1     117.058 159.209 112.413  1.00  0.00     0.000 A 
ATOM     16  C   UNL     1     117.604 160.141 111.523  1.00  0.00     0.010 A 
ATOM     17  C   UNL     1     117.560 157.902 112.442  1.00  0.00     0.010 A 
ATOM     18  C   UNL     1     118.623 159.762 110.649  1.00  0.00     0.001 A 
ATOM     19  C   UNL     1     118.579 157.526 111.565  1.00  0.00     0.001 A 
ATOM     20  C   UNL     1     119.107 158.454 110.667  1.00  0.00     0.000 A 
ENDBRANCH   7  15
TORSDOF 1
ENDMDL
MODEL 9
REMARK VINA RESULT:    -6.931      4.701      6.768
REMARK INTER + INTRA:          -7.073
REMARK INTER:                  -6.770
REMARK INTRA:                  -0.303
REMARK UNBOUND:                 0.263
REMARK SMILES CN1C(=O)CN=C(c2ccccc2)c2cc(Cl)ccc21
REMARK SMILES IDX 1 1 2 2 3 3 4 4 5 5 6 6 7 7 14 8 15 9 16 10 17 11 18 12
REMARK SMILES IDX 19 13 20 14 8 15 9 16 13 17 10 18 12 19 11 20
REMARK H PARENT
ROOT
ATOM      1  C   UNL     1     116.356 159.572 117.863  1.00  0.00     0.153 C 
ATOM      2  N   UNL     1     115.682 158.816 116.816  1.00  0.00    -0.313 N 
ATOM      3  C   UNL     1     114.685 159.485 116.096  1.00  0.00     0.248 C 
ATOM      4  O   UNL     1     114.426 160.678 116.278  1.00  0.00    -0.272 OA
ATOM      5  C   UNL     1     113.855 158.655 115.128  1.00  0.00     0.243 C 
ATOM      6  N   UNL     1     114.672 158.320 113.966  1.00  0.00    -0.274 NA
ATOM      7  C   UNL     1     115.631 157.472 114.126  1.00  0.00     0.075 C 
ATOM      8  C   UNL     1     115.915 156.761 115.407  1.00  0.00     0.026 A 
ATOM      9  C   UNL     1     116.159 155.376 115.325  1.00  0.00     0.033 A 
ATOM     10  C   UNL     1     116.544 154.666 116.455  1.00  0.00     0.041 A 
ATOM     11  Cl  UNL     1     116.857 152.979 116.343  1.00  0.00    -0.084 Cl
ATOM     12  C   UNL     1     116.688 155.316 117.672  1.00  0.00     0.023 A 
ATOM     13  C   UNL     1     116.420 156.686 117.764  1.00  0.00     0.028 A 
ATOM     14  C   UNL     1     116.001 157.432 116.644  1.00  0.00     0.053 A 
ENDROOT
BRANCH   7  15
ATOM     15  C   UNL     1     116.501 157.192 112.938  1.00  0.00     0.000 A 
ATOM     16  C   UNL     1     117.638 157.981 112.727  1.00  0.00     0.010 A 
ATOM     17  C   UNL     1     116.215 156.140 112.059  1.00  0.00     0.010 A 
ATOM     18  C   UNL     1     118.465 157.739 111.629  1.00  0.00     0.001 A 
ATOM     19  C   UNL     1     117.044 155.901 110.962  1.00  0.00     0.001 A 
ATOM     20  C   UNL     1     118.164 156.703 110.744  1.00  0.00     0.000 A 
ENDBRANCH   7  15
TORSDOF 1
ENDMDL
