MODEL 1
REMARK VINA RESULT:    -6.873      0.000      0.000
REMARK INTER + INTRA:          -8.373
REMARK INTER:                  -7.677
REMARK INTRA:                  -0.696
REMARK UNBOUND:                -0.696
REMARK SMILES O=C1CN=C(c2ccccc2Cl)c2cc([N+](=O)[O-])ccc2N1
REMARK SMILES IDX 1 1 2 2 3 3 4 4 5 5 13 6 14 7 15 8 19 9 20 10 21 11 22 12
REMARK SMILES IDX 6 14 7 15 11 16 8 17 10 18 9 19 12 20 16 21 17 22 18 23
REMARK H PARENT 22 13
ROOT
ATOM      1  O   UNL     1     138.105 101.295 134.047  1.00  0.00    -0.273 OA
ATOM      2  C   UNL     1     139.063 100.523 134.013  1.00  0.00     0.246 C 
ATOM      3  C   UNL     1     140.057 100.493 132.870  1.00  0.00     0.243 C 
ATOM      4  N   UNL     1     140.010  99.209 132.187  1.00  0.00    -0.274 NA
ATOM      5  C   UNL     1     140.441  98.155 132.785  1.00  0.00     0.076 C 
ATOM      6  C   UNL     1     140.944  98.075 134.191  1.00  0.00     0.031 A 
ATOM      7  C   UNL     1     141.986  97.170 134.471  1.00  0.00     0.098 A 
ATOM      8  C   UNL     1     142.370  96.927 135.795  1.00  0.00     0.270 A 
ATOM      9  C   UNL     1     141.718  97.567 136.852  1.00  0.00     0.088 A 
ATOM     10  C   UNL     1     140.694  98.475 136.573  1.00  0.00     0.034 A 
ATOM     11  C   UNL     1     140.323  98.764 135.250  1.00  0.00     0.051 A 
ATOM     12  N   UNL     1     139.317  99.730 135.101  1.00  0.00    -0.324 N 
ATOM     13  H   UNL     1     138.730  99.960 135.893  1.00  0.00     0.170 HD
ENDROOT
BRANCH   5  14
ATOM     14  C   UNL     1     140.373  96.891 132.006  1.00  0.00     0.019 A 
ATOM     15  C   UNL     1     141.306  96.705 130.977  1.00  0.00     0.012 A 
ATOM     16  C   UNL     1     139.427  95.900 132.292  1.00  0.00     0.050 A 
ATOM     17  C   UNL     1     141.284  95.530 130.228  1.00  0.00     0.001 A 
ATOM     18  C   UNL     1     139.413  94.726 131.536  1.00  0.00     0.021 A 
ATOM     19  C   UNL     1     140.339  94.542 130.505  1.00  0.00     0.002 A 
ATOM     20  Cl  UNL     1     138.227  96.096 133.517  1.00  0.00    -0.084 Cl
ENDBRANCH   5  14
BRANCH   8  21
ATOM     21  N   UNL     1     143.452  95.973 136.079  1.00  0.00     0.062 N 
ATOM     22  O   UNL     1     144.593  96.429 136.234  1.00  0.00    -0.258 OA
ATOM     23  O   UNL     1     143.156  94.774 136.150  1.00  0.00    -0.258 OA
ENDBRANCH   8  21
TORSDOF 2
ENDMDL
MODEL 2
REMARK VINA RESULT:    -6.845      4.227      7.995
REMARK INTER + INTRA:          -8.342
REMARK INTER:                  -7.715
REMARK INTRA:                  -0.627
REMARK UNBOUND:                -0.696
REMARK SMILES O=C1CN=C(c2ccccc2Cl)c2cc([N+](=O)[O-])ccc2N1
REMARK SMILES IDX 1 1 2 2 3 3 4 4 5 5 13 6 14 7 15 8 19 9 20 10 21 11 22 12
REMARK SMILES IDX 6 14 7 15 11 16 8 17 10 18 9 19 12 20 16 21 17 22 18 23
REMARK H PARENT 22 13
ROOT
ATOM      1  O   UNL     1     146.728  93.199 136.054  1.00  0.00    -0.273 OA
ATOM      2  C   UNL     1     146.023  94.153 136.380  1.00  0.00     0.246 C 
ATOM      3  C   UNL     1     146.488  95.231 137.338  1.00  0.00     0.243 C 
ATOM      4  N   UNL     1     145.670  95.231 138.542  1.00  0.00    -0.274 NA
ATOM      5  C   UNL     1     144.442  95.612 138.476  1.00  0.00     0.076 C 
ATOM      6  C   UNL     1     143.700  96.006 137.239  1.00  0.00     0.031 A 
ATOM      7  C   UNL     1     142.728  97.020 137.345  1.00  0.00     0.098 A 
ATOM      8  C   UNL     1     141.885  97.302 136.264  1.00  0.00     0.270 A 
ATOM      9  C   UNL     1     141.987  96.573 135.076  1.00  0.00     0.088 A 
ATOM     10  C   UNL     1     142.960  95.577 134.966  1.00  0.00     0.034 A 
ATOM     11  C   UNL     1     143.844  95.308 136.025  1.00  0.00     0.051 A 
ATOM     12  N   UNL     1     144.807  94.321 135.772  1.00  0.00    -0.324 N 
ATOM     13  H   UNL     1     144.666  93.677 135.004  1.00  0.00     0.170 HD
ENDROOT
BRANCH   5  14
ATOM     14  C   UNL     1     143.687  95.597 139.756  1.00  0.00     0.019 A 
ATOM     15  C   UNL     1     142.685  94.630 139.914  1.00  0.00     0.012 A 
ATOM     16  C   UNL     1     143.970  96.499 140.788  1.00  0.00     0.050 A 
ATOM     17  C   UNL     1     141.960  94.573 141.102  1.00  0.00     0.001 A 
ATOM     18  C   UNL     1     143.237  96.435 141.975  1.00  0.00     0.021 A 
ATOM     19  C   UNL     1     142.233  95.475 142.131  1.00  0.00     0.002 A 
ATOM     20  Cl  UNL     1     145.161  97.738 140.630  1.00  0.00    -0.084 Cl
ENDBRANCH   5  14
BRANCH   8  21
ATOM     21  N   UNL     1     140.867  98.355 136.386  1.00  0.00     0.062 N 
ATOM     22  O   UNL     1     140.519  98.687 137.528  1.00  0.00    -0.258 OA
ATOM     23  O   UNL     1     140.425  98.850 135.342  1.00  0.00    -0.258 OA
ENDBRANCH   8  21
TORSDOF 2
ENDMDL
MODEL 3
REMARK VINA RESULT:    -6.789      2.631      4.685
REMARK INTER + INTRA:          -8.278
REMARK INTER:                  -7.788
REMARK INTRA:                  -0.490
REMARK UNBOUND:                -0.696
REMARK SMILES O=C1CN=C(c2ccccc2Cl)c2cc([N+](=O)[O-])ccc2N1
REMARK SMILES IDX 1 1 2 2 3 3 4 4 5 5 13 6 14 7 15 8 19 9 20 10 21 11 22 12
REMARK SMILES IDX 6 14 7 15 11 16 8 17 10 18 9 19 12 20 16 21 17 22 18 23
REMARK H PARENT 22 13
ROOT
ATOM      1  O   UNL     1     138.572 102.579 133.620  1.00  0.00    -0.273 OA
ATOM      2  C   UNL     1     138.682 101.360 133.748  1.00  0.00     0.246 C 
ATOM      3  C   UNL     1     138.390 100.639 135.048  1.00  0.00     0.243 C 
ATOM      4  N   UNL     1     139.595 100.006 135.563  1.00  0.00    -0.274 NA
ATOM      5  C   UNL     1     140.096  98.996 134.943  1.00  0.00     0.076 C 
ATOM      6  C   UNL     1     139.605  98.409 133.658  1.00  0.00     0.031 A 
ATOM      7  C   UNL     1     139.714  97.017 133.481  1.00  0.00     0.098 A 
ATOM      8  C   UNL     1     139.437  96.442 132.235  1.00  0.00     0.270 A 
ATOM      9  C   UNL     1     139.064  97.241 131.153  1.00  0.00     0.088 A 
ATOM     10  C   UNL     1     138.942  98.621 131.332  1.00  0.00     0.034 A 
ATOM     11  C   UNL     1     139.175  99.212 132.585  1.00  0.00     0.051 A 
ATOM     12  N   UNL     1     138.970 100.598 132.647  1.00  0.00    -0.324 N 
ATOM     13  H   UNL     1     138.946 101.134 131.788  1.00  0.00     0.170 HD
ENDROOT
BRANCH   5  14
ATOM     14  C   UNL     1     141.316  98.401 135.549  1.00  0.00     0.019 A 
ATOM     15  C   UNL     1     142.502  98.440 134.804  1.00  0.00     0.012 A 
ATOM     16  C   UNL     1     141.302  97.837 136.829  1.00  0.00     0.050 A 
ATOM     17  C   UNL     1     143.673  97.904 135.338  1.00  0.00     0.001 A 
ATOM     18  C   UNL     1     142.479  97.301 137.356  1.00  0.00     0.021 A 
ATOM     19  C   UNL     1     143.662  97.333 136.611  1.00  0.00     0.002 A 
ATOM     20  Cl  UNL     1     139.861  97.722 137.772  1.00  0.00    -0.084 Cl
ENDBRANCH   5  14
BRANCH   8  21
ATOM     21  N   UNL     1     139.563  94.988 132.058  1.00  0.00     0.062 N 
ATOM     22  O   UNL     1     140.311  94.377 132.834  1.00  0.00    -0.258 OA
ATOM     23  O   UNL     1     138.911  94.463 131.147  1.00  0.00    -0.258 OA
ENDBRANCH   8  21
TORSDOF 2
ENDMDL
MODEL 4
REMARK VINA RESULT:    -6.717      3.564      4.683
REMARK INTER + INTRA:          -8.198
REMARK INTER:                  -7.563
REMARK INTRA:                  -0.635
REMARK UNBOUND:                -0.696
REMARK SMILES O=C1CN=C(c2ccccc2Cl)c2cc([N+](=O)[O-])ccc2N1
REMARK SMILES IDX 1 1 2 2 3 3 4 4 5 5 13 6 14 7 15 8 19 9 20 10 21 11 22 12
REMARK SMILES IDX 6 14 7 15 11 16 8 17 10 18 9 19 12 20 16 21 17 22 18 23
REMARK H PARENT 22 13
ROOT
ATOM      1  O   UNL     1     141.665  99.337 133.425  1.00  0.00    -0.273 OA
ATOM      2  C   UNL     1     142.211  98.767 134.370  1.00  0.00     0.246 C 
ATOM      3  C   UNL     1     143.713  98.748 134.562  1.00  0.00     0.243 C 
ATOM      4  N   UNL     1     144.222  97.388 134.474  1.00  0.00    -0.274 NA
ATOM      5  C   UNL     1     143.944  96.544 135.406  1.00  0.00     0.076 C 
ATOM      6  C   UNL     1     143.060  96.785 136.588  1.00  0.00     0.031 A 
ATOM      7  C   UNL     1     143.390  96.153 137.802  1.00  0.00     0.098 A 
ATOM      8  C   UNL     1     142.504  96.201 138.884  1.00  0.00     0.270 A 
ATOM      9  C   UNL     1     141.279  96.863 138.769  1.00  0.00     0.088 A 
ATOM     10  C   UNL     1     140.958  97.502 137.569  1.00  0.00     0.034 A 
ATOM     11  C   UNL     1     141.852  97.501 136.486  1.00  0.00     0.051 A 
ATOM     12  N   UNL     1     141.434  98.220 135.356  1.00  0.00    -0.324 N 
ATOM     13  H   UNL     1     140.455  98.456 135.253  1.00  0.00     0.170 HD
ENDROOT
BRANCH   5  14
ATOM     14  C   UNL     1     144.520  95.183 135.244  1.00  0.00     0.019 A 
ATOM     15  C   UNL     1     145.804  94.952 135.756  1.00  0.00     0.012 A 
ATOM     16  C   UNL     1     143.808  94.152 134.623  1.00  0.00     0.050 A 
ATOM     17  C   UNL     1     146.378  93.687 135.636  1.00  0.00     0.001 A 
ATOM     18  C   UNL     1     144.392  92.889 134.506  1.00  0.00     0.021 A 
ATOM     19  C   UNL     1     145.674  92.657 135.010  1.00  0.00     0.002 A 
ATOM     20  Cl  UNL     1     142.243  94.394 133.935  1.00  0.00    -0.084 Cl
ENDBRANCH   5  14
BRANCH   8  21
ATOM     21  N   UNL     1     142.853  95.530 140.144  1.00  0.00     0.062 N 
ATOM     22  O   UNL     1     143.422  96.204 141.015  1.00  0.00    -0.258 OA
ATOM     23  O   UNL     1     142.552  94.335 140.261  1.00  0.00    -0.258 OA
ENDBRANCH   8  21
TORSDOF 2
ENDMDL
MODEL 5
REMARK VINA RESULT:    -6.692      3.752      5.731
REMARK INTER + INTRA:          -8.170
REMARK INTER:                  -7.467
REMARK INTRA:                  -0.702
REMARK UNBOUND:                -0.696
REMARK SMILES O=C1CN=C(c2ccccc2Cl)c2cc([N+](=O)[O-])ccc2N1
REMARK SMILES IDX 1 1 2 2 3 3 4 4 5 5 13 6 14 7 15 8 19 9 20 10 21 11 22 12
REMARK SMILES IDX 6 14 7 15 11 16 8 17 10 18 9 19 12 20 16 21 17 22 18 23
REMARK H PARENT 22 13
ROOT
ATOM      1  O   UNL     1     146.603  94.373 134.116  1.00  0.00    -0.273 OA
ATOM      2  C   UNL     1     145.591  94.487 134.806  1.00  0.00     0.246 C 
ATOM      3  C   UNL     1     144.276  93.822 134.454  1.00  0.00     0.243 C 
ATOM      4  N   UNL     1     143.252  94.822 134.193  1.00  0.00    -0.274 NA
ATOM      5  C   UNL     1     142.801  95.538 135.163  1.00  0.00     0.076 C 
ATOM      6  C   UNL     1     143.274  95.511 136.581  1.00  0.00     0.031 A 
ATOM      7  C   UNL     1     142.327  95.729 137.600  1.00  0.00     0.098 A 
ATOM      8  C   UNL     1     142.745  95.892 138.926  1.00  0.00     0.270 A 
ATOM      9  C   UNL     1     144.103  95.854 139.252  1.00  0.00     0.088 A 
ATOM     10  C   UNL     1     145.041  95.624 138.243  1.00  0.00     0.034 A 
ATOM     11  C   UNL     1     144.639  95.416 136.913  1.00  0.00     0.051 A 
ATOM     12  N   UNL     1     145.672  95.145 136.004  1.00  0.00    -0.324 N 
ATOM     13  H   UNL     1     146.626  95.377 136.255  1.00  0.00     0.170 HD
ENDROOT
BRANCH   5  14
ATOM     14  C   UNL     1     141.744  96.522 134.809  1.00  0.00     0.019 A 
ATOM     15  C   UNL     1     140.435  96.047 134.653  1.00  0.00     0.012 A 
ATOM     16  C   UNL     1     142.028  97.883 134.653  1.00  0.00     0.050 A 
ATOM     17  C   UNL     1     139.411  96.937 134.332  1.00  0.00     0.001 A 
ATOM     18  C   UNL     1     140.996  98.766 134.330  1.00  0.00     0.021 A 
ATOM     19  C   UNL     1     139.691  98.294 134.169  1.00  0.00     0.002 A 
ATOM     20  Cl  UNL     1     143.629  98.513 134.788  1.00  0.00    -0.084 Cl
ENDBRANCH   5  14
BRANCH   8  21
ATOM     21  N   UNL     1     141.749  96.128 139.981  1.00  0.00     0.062 N 
ATOM     22  O   UNL     1     141.944  95.597 141.083  1.00  0.00    -0.258 OA
ATOM     23  O   UNL     1     140.781  96.849 139.706  1.00  0.00    -0.258 OA
ENDBRANCH   8  21
TORSDOF 2
ENDMDL
MODEL 6
REMARK VINA RESULT:    -6.630      2.227      2.620
REMARK INTER + INTRA:          -8.100
REMARK INTER:                  -7.395
REMARK INTRA:                  -0.706
REMARK UNBOUND:                -0.696
REMARK SMILES O=C1CN=C(c2ccccc2Cl)c2cc([N+](=O)[O-])ccc2N1
REMARK SMILES IDX 1 1 2 2 3 3 4 4 5 5 13 6 14 7 15 8 19 9 20 10 21 11 22 12
REMARK SMILES IDX 6 14 7 15 11 16 8 17 10 18 9 19 12 20 16 21 17 22 18 23
REMARK H PARENT 22 13
ROOT
ATOM      1  O   UNL     1     138.427  99.419 133.207  1.00  0.00    -0.273 OA
ATOM      2  C   UNL     1     139.516  99.158 133.719  1.00  0.00     0.246 C 
ATOM      3  C   UNL     1     140.817  99.771 133.242  1.00  0.00     0.243 C 
ATOM      4  N   UNL     1     141.705  98.741 132.723  1.00  0.00    -0.274 NA
ATOM      5  C   UNL     1     142.231  97.889 133.531  1.00  0.00     0.076 C 
ATOM      6  C   UNL     1     141.971  97.782 135.000  1.00  0.00     0.031 A 
ATOM      7  C   UNL     1     143.034  97.383 135.833  1.00  0.00     0.098 A 
ATOM      8  C   UNL     1     142.800  97.096 137.183  1.00  0.00     0.270 A 
ATOM      9  C   UNL     1     141.511  97.186 137.715  1.00  0.00     0.088 A 
ATOM     10  C   UNL     1     140.460  97.594 136.892  1.00  0.00     0.034 A 
ATOM     11  C   UNL     1     140.681  97.928 135.545  1.00  0.00     0.051 A 
ATOM     12  N   UNL     1     139.554  98.372 134.839  1.00  0.00    -0.324 N 
ATOM     13  H   UNL     1     138.630  98.177 135.206  1.00  0.00     0.170 HD
ENDROOT
BRANCH   5  14
ATOM     14  C   UNL     1     143.139  96.885 132.918  1.00  0.00     0.019 A 
ATOM     15  C   UNL     1     144.430  97.301 132.565  1.00  0.00     0.012 A 
ATOM     16  C   UNL     1     142.740  95.560 132.713  1.00  0.00     0.050 A 
ATOM     17  C   UNL     1     145.319  96.389 131.997  1.00  0.00     0.001 A 
ATOM     18  C   UNL     1     143.637  94.654 132.142  1.00  0.00     0.021 A 
ATOM     19  C   UNL     1     144.923  95.068 131.784  1.00  0.00     0.002 A 
ATOM     20  Cl  UNL     1     141.149  95.006 133.087  1.00  0.00    -0.084 Cl
ENDBRANCH   5  14
BRANCH   8  21
ATOM     21  N   UNL     1     143.914  96.672 138.043  1.00  0.00     0.062 N 
ATOM     22  O   UNL     1     144.890  96.139 137.497  1.00  0.00    -0.258 OA
ATOM     23  O   UNL     1     143.811  96.878 139.259  1.00  0.00    -0.258 OA
ENDBRANCH   8  21
TORSDOF 2
ENDMDL
MODEL 7
REMARK VINA RESULT:    -6.501      3.191      4.935
REMARK INTER + INTRA:          -7.957
REMARK INTER:                  -7.246
REMARK INTRA:                  -0.711
REMARK UNBOUND:                -0.696
REMARK SMILES O=C1CN=C(c2ccccc2Cl)c2cc([N+](=O)[O-])ccc2N1
REMARK SMILES IDX 1 1 2 2 3 3 4 4 5 5 13 6 14 7 15 8 19 9 20 10 21 11 22 12
REMARK SMILES IDX 6 14 7 15 11 16 8 17 10 18 9 19 12 20 16 21 17 22 18 23
REMARK H PARENT 22 13
ROOT
ATOM      1  O   UNL     1     142.323  95.213 139.510  1.00  0.00    -0.273 OA
ATOM      2  C   UNL     1     142.604  95.814 138.473  1.00  0.00     0.246 C 
ATOM      3  C   UNL     1     142.430  97.311 138.316  1.00  0.00     0.243 C 
ATOM      4  N   UNL     1     141.447  97.604 137.284  1.00  0.00    -0.274 NA
ATOM      5  C   UNL     1     141.726  97.359 136.052  1.00  0.00     0.076 C 
ATOM      6  C   UNL     1     142.971  96.711 135.536  1.00  0.00     0.031 A 
ATOM      7  C   UNL     1     143.469  97.134 134.288  1.00  0.00     0.098 A 
ATOM      8  C   UNL     1     144.523  96.442 133.680  1.00  0.00     0.270 A 
ATOM      9  C   UNL     1     145.082  95.318 134.294  1.00  0.00     0.088 A 
ATOM     10  C   UNL     1     144.597  94.907 135.538  1.00  0.00     0.034 A 
ATOM     11  C   UNL     1     143.569  95.614 136.184  1.00  0.00     0.051 A 
ATOM     12  N   UNL     1     143.207  95.131 137.450  1.00  0.00    -0.324 N 
ATOM     13  H   UNL     1     143.470  94.190 137.716  1.00  0.00     0.170 HD
ENDROOT
BRANCH   5  14
ATOM     14  C   UNL     1     140.671  97.707 135.064  1.00  0.00     0.019 A 
ATOM     15  C   UNL     1     140.544  99.051 134.690  1.00  0.00     0.012 A 
ATOM     16  C   UNL     1     139.840  96.733 134.501  1.00  0.00     0.050 A 
ATOM     17  C   UNL     1     139.575  99.421 133.759  1.00  0.00     0.001 A 
ATOM     18  C   UNL     1     138.871  97.112 133.570  1.00  0.00     0.021 A 
ATOM     19  C   UNL     1     138.738  98.454 133.200  1.00  0.00     0.002 A 
ATOM     20  Cl  UNL     1     139.923  95.070 134.959  1.00  0.00    -0.084 Cl
ENDBRANCH   5  14
BRANCH   8  21
ATOM     21  N   UNL     1     145.030  96.884 132.373  1.00  0.00     0.062 N 
ATOM     22  O   UNL     1     144.671  97.998 131.966  1.00  0.00    -0.258 OA
ATOM     23  O   UNL     1     145.788  96.120 131.763  1.00  0.00    -0.258 OA
ENDBRANCH   8  21
TORSDOF 2
ENDMDL
MODEL 8
REMARK VINA RESULT:    -6.335      3.079      4.382
REMARK INTER + INTRA:          -7.771
REMARK INTER:                  -7.068
REMARK INTRA:                  -0.704
REMARK UNBOUND:                -0.696
REMARK SMILES O=C1CN=C(c2ccccc2Cl)c2cc([N+](=O)[O-])ccc2N1
REMARK SMILES IDX 1 1 2 2 3 3 4 4 5 5 13 6 14 7 15 8 19 9 20 10 21 11 22 12
REMARK SMILES IDX 6 14 7 15 11 16 8 17 10 18 9 19 12 20 16 21 17 22 18 23
REMARK H PARENT 22 13
ROOT
ATOM      1  O   UNL     1     141.539  96.263 139.354  1.00  0.00    -0.273 OA
ATOM      2  C   UNL     1     141.824  96.665 138.226  1.00  0.00     0.246 C 
ATOM      3  C   UNL     1     141.347  97.997 137.683  1.00  0.00     0.243 C 
ATOM      4  N   UNL     1     140.478  97.798 136.534  1.00  0.00    -0.274 NA
ATOM      5  C   UNL     1     140.975  97.358 135.431  1.00  0.00     0.076 C 
ATOM      6  C   UNL     1     142.392  96.941 135.199  1.00  0.00     0.031 A 
ATOM      7  C   UNL     1     142.954  97.182 133.931  1.00  0.00     0.098 A 
ATOM      8  C   UNL     1     144.209  96.654 133.605  1.00  0.00     0.270 A 
ATOM      9  C   UNL     1     144.910  95.872 134.527  1.00  0.00     0.088 A 
ATOM     10  C   UNL     1     144.359  95.645 135.789  1.00  0.00     0.034 A 
ATOM     11  C   UNL     1     143.120  96.201 136.150  1.00  0.00     0.051 A 
ATOM     12  N   UNL     1     142.699  95.941 137.462  1.00  0.00    -0.324 N 
ATOM     13  H   UNL     1     143.124  95.180 137.977  1.00  0.00     0.170 HD
ENDROOT
BRANCH   5  14
ATOM     14  C   UNL     1     140.018  97.202 134.303  1.00  0.00     0.019 A 
ATOM     15  C   UNL     1     139.443  95.940 134.104  1.00  0.00     0.012 A 
ATOM     16  C   UNL     1     139.677  98.275 133.473  1.00  0.00     0.050 A 
ATOM     17  C   UNL     1     138.533  95.751 133.065  1.00  0.00     0.001 A 
ATOM     18  C   UNL     1     138.765  98.077 132.435  1.00  0.00     0.021 A 
ATOM     19  C   UNL     1     138.195  96.817 132.230  1.00  0.00     0.002 A 
ATOM     20  Cl  UNL     1     140.389  99.838 133.646  1.00  0.00    -0.084 Cl
ENDBRANCH   5  14
BRANCH   8  21
ATOM     21  N   UNL     1     144.784  96.903 132.275  1.00  0.00     0.062 N 
ATOM     22  O   UNL     1     145.430  95.986 131.749  1.00  0.00    -0.258 OA
ATOM     23  O   UNL     1     144.582  98.010 131.761  1.00  0.00    -0.258 OA
ENDBRANCH   8  21
TORSDOF 2
ENDMDL
MODEL 9
REMARK VINA RESULT:    -6.176      2.742      3.514
REMARK INTER + INTRA:          -7.594
REMARK INTER:                  -6.897
REMARK INTRA:                  -0.697
REMARK UNBOUND:                -0.696
REMARK SMILES O=C1CN=C(c2ccccc2Cl)c2cc([N+](=O)[O-])ccc2N1
REMARK SMILES IDX 1 1 2 2 3 3 4 4 5 5 13 6 14 7 15 8 19 9 20 10 21 11 22 12
REMARK SMILES IDX 6 14 7 15 11 16 8 17 10 18 9 19 12 20 16 21 17 22 18 23
REMARK H PARENT 22 13
ROOT
ATOM      1  O   UNL     1     139.670  97.840 138.123  1.00  0.00    -0.273 OA
ATOM      2  C   UNL     1     140.240  97.608 137.056  1.00  0.00     0.246 C 
ATOM      3  C   UNL     1     140.423  98.655 135.976  1.00  0.00     0.243 C 
ATOM      4  N   UNL     1     139.708  98.272 134.768  1.00  0.00    -0.274 NA
ATOM      5  C   UNL     1     140.123  97.270 134.075  1.00  0.00     0.076 C 
ATOM      6  C   UNL     1     141.265  96.366 134.416  1.00  0.00     0.031 A 
ATOM      7  C   UNL     1     142.039  95.849 133.359  1.00  0.00     0.098 A 
ATOM      8  C   UNL     1     143.001  94.864 133.608  1.00  0.00     0.270 A 
ATOM      9  C   UNL     1     143.195  94.373 134.901  1.00  0.00     0.088 A 
ATOM     10  C   UNL     1     142.437  94.895 135.951  1.00  0.00     0.034 A 
ATOM     11  C   UNL     1     141.497  95.915 135.729  1.00  0.00     0.051 A 
ATOM     12  N   UNL     1     140.838  96.390 136.872  1.00  0.00    -0.324 N 
ATOM     13  H   UNL     1     140.844  95.830 137.716  1.00  0.00     0.170 HD
ENDROOT
BRANCH   5  14
ATOM     14  C   UNL     1     139.344  96.961 132.847  1.00  0.00     0.019 A 
ATOM     15  C   UNL     1     138.451  95.882 132.894  1.00  0.00     0.012 A 
ATOM     16  C   UNL     1     139.472  97.726 131.683  1.00  0.00     0.050 A 
ATOM     17  C   UNL     1     137.692  95.564 131.769  1.00  0.00     0.001 A 
ATOM     18  C   UNL     1     138.708  97.398 130.560  1.00  0.00     0.021 A 
ATOM     19  C   UNL     1     137.821  96.319 130.603  1.00  0.00     0.002 A 
ATOM     20  Cl  UNL     1     140.588  99.036 131.556  1.00  0.00    -0.084 Cl
ENDBRANCH   5  14
BRANCH   8  21
ATOM     21  N   UNL     1     143.797  94.323 132.497  1.00  0.00     0.062 N 
ATOM     22  O   UNL     1     144.578  95.094 131.922  1.00  0.00    -0.258 OA
ATOM     23  O   UNL     1     143.644  93.129 132.208  1.00  0.00    -0.258 OA
ENDBRANCH   8  21
TORSDOF 2
ENDMDL
