MODEL 1
REMARK VINA RESULT:    -7.650      0.000      0.000
REMARK INTER + INTRA:          -7.766
REMARK INTER:                  -8.097
REMARK INTRA:                   0.331
REMARK UNBOUND:                 0.331
REMARK SMILES Cc1nnc2n1-c1ccc(Cl)cc1C(c1ccccc1)=NC2
REMARK SMILES IDX 1 1 2 2 3 3 4 4 5 5 6 6 7 7 8 8 9 9 10 10 11 11 12 12 13 13
REMARK SMILES IDX 14 14 21 15 22 16 15 17 16 18 20 19 17 20 19 21 18 22
REMARK H PARENT
ROOT
ATOM      1  C   UNL     1     141.821  95.612 130.771  1.00  0.00     0.090 C 
ATOM      2  C   UNL     1     142.889  96.362 131.472  1.00  0.00     0.134 A 
ATOM      3  N   UNL     1     144.175  96.099 131.358  1.00  0.00    -0.135 NA
ATOM      4  N   UNL     1     144.856  96.880 132.249  1.00  0.00    -0.133 NA
ATOM      5  C   UNL     1     143.977  97.616 132.894  1.00  0.00     0.159 A 
ATOM      6  N   UNL     1     142.710  97.362 132.416  1.00  0.00    -0.281 N 
ATOM      7  C   UNL     1     141.537  98.071 132.785  1.00  0.00     0.058 A 
ATOM      8  C   UNL     1     140.556  98.328 131.812  1.00  0.00     0.029 A 
ATOM      9  C   UNL     1     139.436  99.104 132.123  1.00  0.00     0.023 A 
ATOM     10  C   UNL     1     139.295  99.639 133.399  1.00  0.00     0.041 A 
ATOM     11  Cl  UNL     1     137.925 100.609 133.772  1.00  0.00    -0.084 Cl
ATOM     12  C   UNL     1     140.255  99.391 134.376  1.00  0.00     0.033 A 
ATOM     13  C   UNL     1     141.374  98.589 134.086  1.00  0.00     0.026 A 
ATOM     14  C   UNL     1     142.296  98.272 135.225  1.00  0.00     0.075 C 
ATOM     15  N   UNL     1     143.584  98.317 135.166  1.00  0.00    -0.276 NA
ATOM     16  C   UNL     1     144.253  98.650 133.917  1.00  0.00     0.220 C 
ENDROOT
BRANCH  14  17
ATOM     17  C   UNL     1     141.695  97.869 136.539  1.00  0.00     0.000 A 
ATOM     18  C   UNL     1     142.437  97.058 137.405  1.00  0.00     0.010 A 
ATOM     19  C   UNL     1     140.398  98.263 136.895  1.00  0.00     0.010 A 
ATOM     20  C   UNL     1     141.899  96.668 138.632  1.00  0.00     0.001 A 
ATOM     21  C   UNL     1     139.865  97.870 138.125  1.00  0.00     0.001 A 
ATOM     22  C   UNL     1     140.616  97.078 138.993  1.00  0.00     0.000 A 
ENDBRANCH  14  17
TORSDOF 1
ENDMDL
MODEL 2
REMARK VINA RESULT:    -7.614      3.331      5.072
REMARK INTER + INTRA:          -7.728
REMARK INTER:                  -7.315
REMARK INTRA:                  -0.412
REMARK UNBOUND:                 0.331
REMARK SMILES Cc1nnc2n1-c1ccc(Cl)cc1C(c1ccccc1)=NC2
REMARK SMILES IDX 1 1 2 2 3 3 4 4 5 5 6 6 7 7 8 8 9 9 10 10 11 11 12 12 13 13
REMARK SMILES IDX 14 14 21 15 22 16 15 17 16 18 20 19 17 20 19 21 18 22
REMARK H PARENT
ROOT
ATOM      1  C   UNL     1     139.108  97.663 133.999  1.00  0.00     0.090 C 
ATOM      2  C   UNL     1     140.433  98.281 133.760  1.00  0.00     0.134 A 
ATOM      3  N   UNL     1     140.729  99.012 132.705  1.00  0.00    -0.135 NA
ATOM      4  N   UNL     1     142.066  99.292 132.736  1.00  0.00    -0.133 NA
ATOM      5  C   UNL     1     142.571  98.732 133.814  1.00  0.00     0.159 A 
ATOM      6  N   UNL     1     141.573  98.108 134.530  1.00  0.00    -0.281 N 
ATOM      7  C   UNL     1     141.730  97.518 135.811  1.00  0.00     0.058 A 
ATOM      8  C   UNL     1     140.688  97.627 136.748  1.00  0.00     0.029 A 
ATOM      9  C   UNL     1     140.851  97.139 138.048  1.00  0.00     0.023 A 
ATOM     10  C   UNL     1     142.055  96.555 138.425  1.00  0.00     0.041 A 
ATOM     11  Cl  UNL     1     142.257  95.973 140.030  1.00  0.00    -0.084 Cl
ATOM     12  C   UNL     1     143.096  96.436 137.509  1.00  0.00     0.033 A 
ATOM     13  C   UNL     1     142.938  96.897 136.188  1.00  0.00     0.026 A 
ATOM     14  C   UNL     1     144.061  96.622 135.233  1.00  0.00     0.075 C 
ATOM     15  N   UNL     1     144.544  97.477 134.397  1.00  0.00    -0.276 NA
ATOM     16  C   UNL     1     143.970  98.811 134.293  1.00  0.00     0.220 C 
ENDROOT
BRANCH  14  17
ATOM     17  C   UNL     1     144.681  95.256 135.236  1.00  0.00     0.000 A 
ATOM     18  C   UNL     1     144.068  94.231 134.504  1.00  0.00     0.010 A 
ATOM     19  C   UNL     1     145.836  94.984 135.979  1.00  0.00     0.010 A 
ATOM     20  C   UNL     1     144.624  92.952 134.493  1.00  0.00     0.001 A 
ATOM     21  C   UNL     1     146.389  93.701 135.962  1.00  0.00     0.001 A 
ATOM     22  C   UNL     1     145.786  92.689 135.217  1.00  0.00     0.000 A 
ENDBRANCH  14  17
TORSDOF 1
ENDMDL
MODEL 3
REMARK VINA RESULT:    -7.399      3.043      4.595
REMARK INTER + INTRA:          -7.501
REMARK INTER:                  -7.054
REMARK INTRA:                  -0.447
REMARK UNBOUND:                 0.331
REMARK SMILES Cc1nnc2n1-c1ccc(Cl)cc1C(c1ccccc1)=NC2
REMARK SMILES IDX 1 1 2 2 3 3 4 4 5 5 6 6 7 7 8 8 9 9 10 10 11 11 12 12 13 13
REMARK SMILES IDX 14 14 21 15 22 16 15 17 16 18 20 19 17 20 19 21 18 22
REMARK H PARENT
ROOT
ATOM      1  C   UNL     1     139.262  97.920 132.469  1.00  0.00     0.090 C 
ATOM      2  C   UNL     1     140.668  98.331 132.241  1.00  0.00     0.134 A 
ATOM      3  N   UNL     1     141.106  98.882 131.127  1.00  0.00    -0.135 NA
ATOM      4  N   UNL     1     142.466  98.992 131.207  1.00  0.00    -0.133 NA
ATOM      5  C   UNL     1     142.842  98.510 132.372  1.00  0.00     0.159 A 
ATOM      6  N   UNL     1     141.739  98.111 133.094  1.00  0.00    -0.281 N 
ATOM      7  C   UNL     1     141.757  97.669 134.442  1.00  0.00     0.058 A 
ATOM      8  C   UNL     1     140.698  98.024 135.295  1.00  0.00     0.029 A 
ATOM      9  C   UNL     1     140.735  97.684 136.650  1.00  0.00     0.023 A 
ATOM     10  C   UNL     1     141.832  97.003 137.165  1.00  0.00     0.041 A 
ATOM     11  Cl  UNL     1     141.883  96.603 138.837  1.00  0.00    -0.084 Cl
ATOM     12  C   UNL     1     142.889  96.640 136.334  1.00  0.00     0.033 A 
ATOM     13  C   UNL     1     142.853  96.951 134.962  1.00  0.00     0.026 A 
ATOM     14  C   UNL     1     143.971  96.419 134.116  1.00  0.00     0.075 C 
ATOM     15  N   UNL     1     144.601  97.096 133.216  1.00  0.00    -0.276 NA
ATOM     16  C   UNL     1     144.216  98.469 132.923  1.00  0.00     0.220 C 
ENDROOT
BRANCH  14  17
ATOM     17  C   UNL     1     144.402  94.996 134.315  1.00  0.00     0.000 A 
ATOM     18  C   UNL     1     145.565  94.737 135.051  1.00  0.00     0.010 A 
ATOM     19  C   UNL     1     143.683  93.934 133.754  1.00  0.00     0.010 A 
ATOM     20  C   UNL     1     145.988  93.421 135.249  1.00  0.00     0.001 A 
ATOM     21  C   UNL     1     144.111  92.619 133.957  1.00  0.00     0.001 A 
ATOM     22  C   UNL     1     145.259  92.364 134.706  1.00  0.00     0.000 A 
ENDBRANCH  14  17
TORSDOF 1
ENDMDL
MODEL 4
REMARK VINA RESULT:    -7.328      3.240      4.767
REMARK INTER + INTRA:          -7.425
REMARK INTER:                  -7.083
REMARK INTRA:                  -0.342
REMARK UNBOUND:                 0.331
REMARK SMILES Cc1nnc2n1-c1ccc(Cl)cc1C(c1ccccc1)=NC2
REMARK SMILES IDX 1 1 2 2 3 3 4 4 5 5 6 6 7 7 8 8 9 9 10 10 11 11 12 12 13 13
REMARK SMILES IDX 14 14 21 15 22 16 15 17 16 18 20 19 17 20 19 21 18 22
REMARK H PARENT
ROOT
ATOM      1  C   UNL     1     143.557  99.075 132.693  1.00  0.00     0.090 C 
ATOM      2  C   UNL     1     142.259  98.741 133.323  1.00  0.00     0.134 A 
ATOM      3  N   UNL     1     141.180  99.494 133.240  1.00  0.00    -0.135 NA
ATOM      4  N   UNL     1     140.220  98.962 134.054  1.00  0.00    -0.133 NA
ATOM      5  C   UNL     1     140.722  97.888 134.623  1.00  0.00     0.159 A 
ATOM      6  N   UNL     1     142.004  97.670 134.166  1.00  0.00    -0.281 N 
ATOM      7  C   UNL     1     142.797  96.530 134.461  1.00  0.00     0.058 A 
ATOM      8  C   UNL     1     143.633  96.000 133.464  1.00  0.00     0.029 A 
ATOM      9  C   UNL     1     144.353  94.824 133.695  1.00  0.00     0.023 A 
ATOM     10  C   UNL     1     144.232  94.164 134.913  1.00  0.00     0.041 A 
ATOM     11  Cl  UNL     1     145.104  92.708 135.186  1.00  0.00    -0.084 Cl
ATOM     12  C   UNL     1     143.411  94.678 135.913  1.00  0.00     0.033 A 
ATOM     13  C   UNL     1     142.702  95.875 135.706  1.00  0.00     0.026 A 
ATOM     14  C   UNL     1     141.937  96.423 136.873  1.00  0.00     0.075 C 
ATOM     15  N   UNL     1     140.735  96.888 136.815  1.00  0.00    -0.276 NA
ATOM     16  C   UNL     1     140.032  96.955 135.543  1.00  0.00     0.220 C 
ENDROOT
BRANCH  14  17
ATOM     17  C   UNL     1     142.603  96.440 138.218  1.00  0.00     0.000 A 
ATOM     18  C   UNL     1     141.857  96.087 139.349  1.00  0.00     0.010 A 
ATOM     19  C   UNL     1     143.940  96.831 138.361  1.00  0.00     0.010 A 
ATOM     20  C   UNL     1     142.454  96.096 140.610  1.00  0.00     0.001 A 
ATOM     21  C   UNL     1     144.532  96.838 139.626  1.00  0.00     0.001 A 
ATOM     22  C   UNL     1     143.791  96.467 140.748  1.00  0.00     0.000 A 
ENDBRANCH  14  17
TORSDOF 1
ENDMDL
MODEL 5
REMARK VINA RESULT:    -7.314      3.168      6.082
REMARK INTER + INTRA:          -7.410
REMARK INTER:                  -6.972
REMARK INTRA:                  -0.438
REMARK UNBOUND:                 0.331
REMARK SMILES Cc1nnc2n1-c1ccc(Cl)cc1C(c1ccccc1)=NC2
REMARK SMILES IDX 1 1 2 2 3 3 4 4 5 5 6 6 7 7 8 8 9 9 10 10 11 11 12 12 13 13
REMARK SMILES IDX 14 14 21 15 22 16 15 17 16 18 20 19 17 20 19 21 18 22
REMARK H PARENT
ROOT
ATOM      1  C   UNL     1     141.533  95.864 137.230  1.00  0.00     0.090 C 
ATOM      2  C   UNL     1     141.083  97.172 136.698  1.00  0.00     0.134 A 
ATOM      3  N   UNL     1     140.534  98.120 137.431  1.00  0.00    -0.135 NA
ATOM      4  N   UNL     1     140.110  99.117 136.599  1.00  0.00    -0.133 NA
ATOM      5  C   UNL     1     140.409  98.769 135.366  1.00  0.00     0.159 A 
ATOM      6  N   UNL     1     141.067  97.559 135.366  1.00  0.00    -0.281 N 
ATOM      7  C   UNL     1     141.657  96.945 134.230  1.00  0.00     0.058 A 
ATOM      8  C   UNL     1     142.867  96.247 134.378  1.00  0.00     0.029 A 
ATOM      9  C   UNL     1     143.518  95.714 133.261  1.00  0.00     0.023 A 
ATOM     10  C   UNL     1     142.975  95.887 131.993  1.00  0.00     0.041 A 
ATOM     11  Cl  UNL     1     143.789  95.247 130.621  1.00  0.00    -0.084 Cl
ATOM     12  C   UNL     1     141.775  96.573 131.829  1.00  0.00     0.033 A 
ATOM     13  C   UNL     1     141.094  97.091 132.946  1.00  0.00     0.026 A 
ATOM     14  C   UNL     1     139.751  97.710 132.696  1.00  0.00     0.075 C 
ATOM     15  N   UNL     1     139.345  98.823 133.205  1.00  0.00    -0.276 NA
ATOM     16  C   UNL     1     140.190  99.560 134.134  1.00  0.00     0.220 C 
ENDROOT
BRANCH  14  17
ATOM     17  C   UNL     1     138.794  96.993 131.789  1.00  0.00     0.000 A 
ATOM     18  C   UNL     1     138.209  97.696 130.728  1.00  0.00     0.010 A 
ATOM     19  C   UNL     1     138.454  95.652 132.006  1.00  0.00     0.010 A 
ATOM     20  C   UNL     1     137.315  97.052 129.872  1.00  0.00     0.001 A 
ATOM     21  C   UNL     1     137.558  95.013 131.144  1.00  0.00     0.001 A 
ATOM     22  C   UNL     1     136.994  95.711 130.078  1.00  0.00     0.000 A 
ENDBRANCH  14  17
TORSDOF 1
ENDMDL
MODEL 6
REMARK VINA RESULT:    -7.068      3.140      4.477
REMARK INTER + INTRA:          -7.150
REMARK INTER:                  -6.756
REMARK INTRA:                  -0.395
REMARK UNBOUND:                 0.331
REMARK SMILES Cc1nnc2n1-c1ccc(Cl)cc1C(c1ccccc1)=NC2
REMARK SMILES IDX 1 1 2 2 3 3 4 4 5 5 6 6 7 7 8 8 9 9 10 10 11 11 12 12 13 13
REMARK SMILES IDX 14 14 21 15 22 16 15 17 16 18 20 19 17 20 19 21 18 22
REMARK H PARENT
ROOT
ATOM      1  C   UNL     1     140.788  99.822 132.254  1.00  0.00     0.090 C 
ATOM      2  C   UNL     1     140.131  98.555 132.652  1.00  0.00     0.134 A 
ATOM      3  N   UNL     1     138.827  98.367 132.656  1.00  0.00    -0.135 NA
ATOM      4  N   UNL     1     138.569  97.147 133.215  1.00  0.00    -0.133 NA
ATOM      5  C   UNL     1     139.720  96.602 133.544  1.00  0.00     0.159 A 
ATOM      6  N   UNL     1     140.755  97.432 133.173  1.00  0.00    -0.281 N 
ATOM      7  C   UNL     1     142.135  97.107 133.250  1.00  0.00     0.058 A 
ATOM      8  C   UNL     1     143.002  97.552 132.238  1.00  0.00     0.029 A 
ATOM      9  C   UNL     1     144.346  97.168 132.237  1.00  0.00     0.023 A 
ATOM     10  C   UNL     1     144.828  96.328 133.235  1.00  0.00     0.041 A 
ATOM     11  Cl  UNL     1     146.478  95.842 133.219  1.00  0.00    -0.084 Cl
ATOM     12  C   UNL     1     143.984  95.880 134.247  1.00  0.00     0.033 A 
ATOM     13  C   UNL     1     142.635  96.281 134.277  1.00  0.00     0.026 A 
ATOM     14  C   UNL     1     141.826  95.854 135.465  1.00  0.00     0.075 C 
ATOM     15  N   UNL     1     140.629  95.377 135.409  1.00  0.00    -0.276 NA
ATOM     16  C   UNL     1     139.941  95.261 134.131  1.00  0.00     0.220 C 
ENDROOT
BRANCH  14  17
ATOM     17  C   UNL     1     142.437  95.985 136.829  1.00  0.00     0.000 A 
ATOM     18  C   UNL     1     142.347  94.908 137.719  1.00  0.00     0.010 A 
ATOM     19  C   UNL     1     143.064  97.170 137.233  1.00  0.00     0.010 A 
ATOM     20  C   UNL     1     142.906  95.006 138.994  1.00  0.00     0.001 A 
ATOM     21  C   UNL     1     143.622  97.262 138.511  1.00  0.00     0.001 A 
ATOM     22  C   UNL     1     143.547  96.180 139.387  1.00  0.00     0.000 A 
ENDBRANCH  14  17
TORSDOF 1
ENDMDL
MODEL 7
REMARK VINA RESULT:    -6.893      3.340      6.280
REMARK INTER + INTRA:          -6.964
REMARK INTER:                  -6.515
REMARK INTRA:                  -0.450
REMARK UNBOUND:                 0.331
REMARK SMILES Cc1nnc2n1-c1ccc(Cl)cc1C(c1ccccc1)=NC2
REMARK SMILES IDX 1 1 2 2 3 3 4 4 5 5 6 6 7 7 8 8 9 9 10 10 11 11 12 12 13 13
REMARK SMILES IDX 14 14 21 15 22 16 15 17 16 18 20 19 17 20 19 21 18 22
REMARK H PARENT
ROOT
ATOM      1  C   UNL     1     140.098  97.639 138.049  1.00  0.00     0.090 C 
ATOM      2  C   UNL     1     140.525  98.257 136.772  1.00  0.00     0.134 A 
ATOM      3  N   UNL     1     139.860  99.211 136.153  1.00  0.00    -0.135 NA
ATOM      4  N   UNL     1     140.454  99.436 134.944  1.00  0.00    -0.133 NA
ATOM      5  C   UNL     1     141.480  98.619 134.839  1.00  0.00     0.159 A 
ATOM      6  N   UNL     1     141.603  97.871 135.989  1.00  0.00    -0.281 N 
ATOM      7  C   UNL     1     142.673  96.986 136.282  1.00  0.00     0.058 A 
ATOM      8  C   UNL     1     143.149  96.897 137.601  1.00  0.00     0.029 A 
ATOM      9  C   UNL     1     144.262  96.107 137.901  1.00  0.00     0.023 A 
ATOM     10  C   UNL     1     144.915  95.414 136.887  1.00  0.00     0.041 A 
ATOM     11  Cl  UNL     1     146.296  94.459 137.257  1.00  0.00    -0.084 Cl
ATOM     12  C   UNL     1     144.455  95.488 135.576  1.00  0.00     0.033 A 
ATOM     13  C   UNL     1     143.319  96.257 135.263  1.00  0.00     0.026 A 
ATOM     14  C   UNL     1     142.819  96.187 133.851  1.00  0.00     0.075 C 
ATOM     15  N   UNL     1     142.449  97.203 133.148  1.00  0.00    -0.276 NA
ATOM     16  C   UNL     1     142.452  98.539 133.725  1.00  0.00     0.220 C 
ENDROOT
BRANCH  14  17
ATOM     17  C   UNL     1     142.734  94.842 133.191  1.00  0.00     0.000 A 
ATOM     18  C   UNL     1     141.651  94.006 133.490  1.00  0.00     0.010 A 
ATOM     19  C   UNL     1     143.731  94.401 132.311  1.00  0.00     0.010 A 
ATOM     20  C   UNL     1     141.551  92.750 132.890  1.00  0.00     0.001 A 
ATOM     21  C   UNL     1     143.625  93.142 131.714  1.00  0.00     0.001 A 
ATOM     22  C   UNL     1     142.535  92.321 131.999  1.00  0.00     0.000 A 
ENDBRANCH  14  17
TORSDOF 1
ENDMDL
MODEL 8
REMARK VINA RESULT:    -6.658      3.232      5.200
REMARK INTER + INTRA:          -6.716
REMARK INTER:                  -6.217
REMARK INTRA:                  -0.499
REMARK UNBOUND:                 0.331
REMARK SMILES Cc1nnc2n1-c1ccc(Cl)cc1C(c1ccccc1)=NC2
REMARK SMILES IDX 1 1 2 2 3 3 4 4 5 5 6 6 7 7 8 8 9 9 10 10 11 11 12 12 13 13
REMARK SMILES IDX 14 14 21 15 22 16 15 17 16 18 20 19 17 20 19 21 18 22
REMARK H PARENT
ROOT
ATOM      1  C   UNL     1     139.497  99.708 132.982  1.00  0.00     0.090 C 
ATOM      2  C   UNL     1     139.764  99.177 134.339  1.00  0.00     0.134 A 
ATOM      3  N   UNL     1     139.681  99.893 135.443  1.00  0.00    -0.135 NA
ATOM      4  N   UNL     1     140.134  99.133 136.484  1.00  0.00    -0.133 NA
ATOM      5  C   UNL     1     140.485  97.959 136.005  1.00  0.00     0.159 A 
ATOM      6  N   UNL     1     140.235  97.911 134.651  1.00  0.00    -0.281 N 
ATOM      7  C   UNL     1     140.363  96.758 133.834  1.00  0.00     0.058 A 
ATOM      8  C   UNL     1     139.437  96.542 132.800  1.00  0.00     0.029 A 
ATOM      9  C   UNL     1     139.482  95.369 132.041  1.00  0.00     0.023 A 
ATOM     10  C   UNL     1     140.440  94.401 132.317  1.00  0.00     0.041 A 
ATOM     11  Cl  UNL     1     140.481  92.951 131.393  1.00  0.00    -0.084 Cl
ATOM     12  C   UNL     1     141.369  94.599 133.335  1.00  0.00     0.033 A 
ATOM     13  C   UNL     1     141.353  95.787 134.090  1.00  0.00     0.026 A 
ATOM     14  C   UNL     1     142.459  95.974 135.084  1.00  0.00     0.075 C 
ATOM     15  N   UNL     1     142.302  96.403 136.291  1.00  0.00    -0.276 NA
ATOM     16  C   UNL     1     140.983  96.792 136.768  1.00  0.00     0.220 C 
ENDROOT
BRANCH  14  17
ATOM     17  C   UNL     1     143.861  95.645 134.662  1.00  0.00     0.000 A 
ATOM     18  C   UNL     1     144.545  94.617 135.323  1.00  0.00     0.010 A 
ATOM     19  C   UNL     1     144.502  96.366 133.647  1.00  0.00     0.010 A 
ATOM     20  C   UNL     1     145.850  94.293 134.950  1.00  0.00     0.001 A 
ATOM     21  C   UNL     1     145.809  96.036 133.278  1.00  0.00     0.001 A 
ATOM     22  C   UNL     1     146.479  94.999 133.925  1.00  0.00     0.000 A 
ENDBRANCH  14  17
TORSDOF 1
ENDMDL
MODEL 9
REMARK VINA RESULT:    -6.642      2.751      5.118
REMARK INTER + INTRA:          -6.699
REMARK INTER:                  -6.467
REMARK INTRA:                  -0.232
REMARK UNBOUND:                 0.331
REMARK SMILES Cc1nnc2n1-c1ccc(Cl)cc1C(c1ccccc1)=NC2
REMARK SMILES IDX 1 1 2 2 3 3 4 4 5 5 6 6 7 7 8 8 9 9 10 10 11 11 12 12 13 13
REMARK SMILES IDX 14 14 21 15 22 16 15 17 16 18 20 19 17 20 19 21 18 22
REMARK H PARENT
ROOT
ATOM      1  C   UNL     1     145.436  94.873 135.656  1.00  0.00     0.090 C 
ATOM      2  C   UNL     1     144.397  94.231 134.817  1.00  0.00     0.134 A 
ATOM      3  N   UNL     1     144.639  93.283 133.935  1.00  0.00    -0.135 NA
ATOM      4  N   UNL     1     143.487  93.032 133.245  1.00  0.00    -0.133 NA
ATOM      5  C   UNL     1     142.552  93.827 133.717  1.00  0.00     0.159 A 
ATOM      6  N   UNL     1     143.058  94.587 134.748  1.00  0.00    -0.281 N 
ATOM      7  C   UNL     1     142.300  95.454 135.578  1.00  0.00     0.058 A 
ATOM      8  C   UNL     1     142.617  95.549 136.943  1.00  0.00     0.029 A 
ATOM      9  C   UNL     1     141.829  96.321 137.801  1.00  0.00     0.023 A 
ATOM     10  C   UNL     1     140.714  96.989 137.308  1.00  0.00     0.041 A 
ATOM     11  Cl  UNL     1     139.736  97.921 138.371  1.00  0.00    -0.084 Cl
ATOM     12  C   UNL     1     140.386  96.908 135.957  1.00  0.00     0.033 A 
ATOM     13  C   UNL     1     141.186  96.158 135.075  1.00  0.00     0.026 A 
ATOM     14  C   UNL     1     140.835  96.221 133.619  1.00  0.00     0.075 C 
ATOM     15  N   UNL     1     140.785  95.204 132.827  1.00  0.00    -0.276 NA
ATOM     16  C   UNL     1     141.128  93.875 133.313  1.00  0.00     0.220 C 
ENDROOT
BRANCH  14  17
ATOM     17  C   UNL     1     140.515  97.559 133.020  1.00  0.00     0.000 A 
ATOM     18  C   UNL     1     139.219  98.071 133.157  1.00  0.00     0.010 A 
ATOM     19  C   UNL     1     141.476  98.282 132.303  1.00  0.00     0.010 A 
ATOM     20  C   UNL     1     138.896  99.312 132.607  1.00  0.00     0.001 A 
ATOM     21  C   UNL     1     141.147  99.525 131.756  1.00  0.00     0.001 A 
ATOM     22  C   UNL     1     139.861 100.040 131.912  1.00  0.00     0.000 A 
ENDBRANCH  14  17
TORSDOF 1
ENDMDL
