MODEL 1
REMARK VINA RESULT:   -10.871      0.000      0.000
REMARK INTER + INTRA:         -11.569
REMARK INTER:                 -11.506
REMARK INTRA:                  -0.063
REMARK UNBOUND:                -0.063
REMARK SMILES Cc1nnc2n1-c1ccc(Cl)cc1C(c1ccccc1Cl)=NC2
REMARK SMILES IDX 1 1 2 2 3 3 4 4 5 5 6 6 7 7 8 8 9 9 10 10 11 11 12 12 13 13
REMARK SMILES IDX 14 14 22 15 23 16 15 17 16 18 20 19 17 20 19 21 18 22 21 23
REMARK H PARENT
ROOT
ATOM      1  C   UNL     1     115.458 160.689 113.070  1.00  0.00     0.090 C 
ATOM      2  C   UNL     1     116.666 160.824 112.223  1.00  0.00     0.134 A 
ATOM      3  N   UNL     1     117.087 161.965 111.717  1.00  0.00    -0.135 NA
ATOM      4  N   UNL     1     118.125 161.703 110.870  1.00  0.00    -0.133 NA
ATOM      5  C   UNL     1     118.332 160.404 110.872  1.00  0.00     0.159 A 
ATOM      6  N   UNL     1     117.462 159.791 111.747  1.00  0.00    -0.281 N 
ATOM      7  C   UNL     1     117.472 158.414 112.096  1.00  0.00     0.058 A 
ATOM      8  C   UNL     1     117.144 158.042 113.411  1.00  0.00     0.029 A 
ATOM      9  C   UNL     1     117.192 156.704 113.805  1.00  0.00     0.023 A 
ATOM     10  C   UNL     1     117.577 155.729 112.895  1.00  0.00     0.041 A 
ATOM     11  Cl  UNL     1     117.646 154.081 113.385  1.00  0.00    -0.084 Cl
ATOM     12  C   UNL     1     117.910 156.077 111.588  1.00  0.00     0.033 A 
ATOM     13  C   UNL     1     117.856 157.419 111.171  1.00  0.00     0.026 A 
ATOM     14  C   UNL     1     118.123 157.694 109.722  1.00  0.00     0.076 C 
ATOM     15  N   UNL     1     118.783 158.690 109.244  1.00  0.00    -0.276 NA
ATOM     16  C   UNL     1     119.384 159.667 110.142  1.00  0.00     0.220 C 
ENDROOT
BRANCH  14  17
ATOM     17  C   UNL     1     117.536 156.758 108.727  1.00  0.00     0.019 A 
ATOM     18  C   UNL     1     116.192 156.396 108.883  1.00  0.00     0.012 A 
ATOM     19  C   UNL     1     118.281 156.267 107.649  1.00  0.00     0.050 A 
ATOM     20  C   UNL     1     115.596 155.532 107.964  1.00  0.00     0.001 A 
ATOM     21  C   UNL     1     117.676 155.402 106.734  1.00  0.00     0.021 A 
ATOM     22  C   UNL     1     116.337 155.035 106.891  1.00  0.00     0.002 A 
ATOM     23  Cl  UNL     1     119.953 156.639 107.432  1.00  0.00    -0.084 Cl
ENDBRANCH  14  17
TORSDOF 1
ENDMDL
MODEL 2
REMARK VINA RESULT:    -8.755      2.271      5.223
REMARK INTER + INTRA:          -9.330
REMARK INTER:                  -9.094
REMARK INTRA:                  -0.236
REMARK UNBOUND:                -0.063
REMARK SMILES Cc1nnc2n1-c1ccc(Cl)cc1C(c1ccccc1Cl)=NC2
REMARK SMILES IDX 1 1 2 2 3 3 4 4 5 5 6 6 7 7 8 8 9 9 10 10 11 11 12 12 13 13
REMARK SMILES IDX 14 14 22 15 23 16 15 17 16 18 20 19 17 20 19 21 18 22 21 23
REMARK H PARENT
ROOT
ATOM      1  C   UNL     1     120.633 157.088 107.116  1.00  0.00     0.090 C 
ATOM      2  C   UNL     1     120.275 158.175 108.057  1.00  0.00     0.134 A 
ATOM      3  N   UNL     1     121.075 159.177 108.364  1.00  0.00    -0.135 NA
ATOM      4  N   UNL     1     120.493 159.899 109.366  1.00  0.00    -0.133 NA
ATOM      5  C   UNL     1     119.341 159.335 109.657  1.00  0.00     0.159 A 
ATOM      6  N   UNL     1     119.123 158.256 108.828  1.00  0.00    -0.281 N 
ATOM      7  C   UNL     1     117.935 157.480 108.774  1.00  0.00     0.058 A 
ATOM      8  C   UNL     1     117.506 156.976 107.534  1.00  0.00     0.029 A 
ATOM      9  C   UNL     1     116.317 156.252 107.432  1.00  0.00     0.023 A 
ATOM     10  C   UNL     1     115.542 156.034 108.564  1.00  0.00     0.041 A 
ATOM     11  Cl  UNL     1     114.071 155.151 108.436  1.00  0.00    -0.084 Cl
ATOM     12  C   UNL     1     115.948 156.528 109.801  1.00  0.00     0.033 A 
ATOM     13  C   UNL     1     117.149 157.250 109.924  1.00  0.00     0.026 A 
ATOM     14  C   UNL     1     117.566 157.650 111.307  1.00  0.00     0.076 C 
ATOM     15  N   UNL     1     118.111 158.766 111.645  1.00  0.00    -0.276 NA
ATOM     16  C   UNL     1     118.345 159.798 110.644  1.00  0.00     0.220 C 
ENDROOT
BRANCH  14  17
ATOM     17  C   UNL     1     117.380 156.654 112.394  1.00  0.00     0.019 A 
ATOM     18  C   UNL     1     117.915 155.373 112.207  1.00  0.00     0.012 A 
ATOM     19  C   UNL     1     116.717 156.979 113.584  1.00  0.00     0.050 A 
ATOM     20  C   UNL     1     117.777 154.412 113.209  1.00  0.00     0.001 A 
ATOM     21  C   UNL     1     116.583 156.008 114.581  1.00  0.00     0.021 A 
ATOM     22  C   UNL     1     117.111 154.729 114.393  1.00  0.00     0.002 A 
ATOM     23  Cl  UNL     1     115.995 158.523 113.851  1.00  0.00    -0.084 Cl
ENDBRANCH  14  17
TORSDOF 1
ENDMDL
MODEL 3
REMARK VINA RESULT:    -8.283      1.933      2.555
REMARK INTER + INTRA:          -8.830
REMARK INTER:                  -8.256
REMARK INTRA:                  -0.575
REMARK UNBOUND:                -0.063
REMARK SMILES Cc1nnc2n1-c1ccc(Cl)cc1C(c1ccccc1Cl)=NC2
REMARK SMILES IDX 1 1 2 2 3 3 4 4 5 5 6 6 7 7 8 8 9 9 10 10 11 11 12 12 13 13
REMARK SMILES IDX 14 14 22 15 23 16 15 17 16 18 20 19 17 20 19 21 18 22 21 23
REMARK H PARENT
ROOT
ATOM      1  C   UNL     1     113.576 157.335 115.058  1.00  0.00     0.090 C 
ATOM      2  C   UNL     1     114.467 158.348 114.445  1.00  0.00     0.134 A 
ATOM      3  N   UNL     1     114.221 159.643 114.449  1.00  0.00    -0.135 NA
ATOM      4  N   UNL     1     115.158 160.260 113.671  1.00  0.00    -0.133 NA
ATOM      5  C   UNL     1     115.970 159.336 113.204  1.00  0.00     0.159 A 
ATOM      6  N   UNL     1     115.608 158.100 113.695  1.00  0.00    -0.281 N 
ATOM      7  C   UNL     1     116.324 156.890 113.500  1.00  0.00     0.058 A 
ATOM      8  C   UNL     1     116.362 155.945 114.540  1.00  0.00     0.029 A 
ATOM      9  C   UNL     1     117.098 154.766 114.404  1.00  0.00     0.023 A 
ATOM     10  C   UNL     1     117.809 154.526 113.236  1.00  0.00     0.041 A 
ATOM     11  Cl  UNL     1     118.723 153.078 113.074  1.00  0.00    -0.084 Cl
ATOM     12  C   UNL     1     117.787 155.451 112.195  1.00  0.00     0.033 A 
ATOM     13  C   UNL     1     117.042 156.639 112.310  1.00  0.00     0.026 A 
ATOM     14  C   UNL     1     116.984 157.526 111.104  1.00  0.00     0.076 C 
ATOM     15  N   UNL     1     117.020 158.813 111.103  1.00  0.00    -0.276 NA
ATOM     16  C   UNL     1     117.162 159.541 112.356  1.00  0.00     0.220 C 
ENDROOT
BRANCH  14  17
ATOM     17  C   UNL     1     116.824 156.873 109.779  1.00  0.00     0.019 A 
ATOM     18  C   UNL     1     115.597 156.259 109.496  1.00  0.00     0.012 A 
ATOM     19  C   UNL     1     117.847 156.886 108.823  1.00  0.00     0.050 A 
ATOM     20  C   UNL     1     115.398 155.647 108.258  1.00  0.00     0.001 A 
ATOM     21  C   UNL     1     117.638 156.269 107.586  1.00  0.00     0.021 A 
ATOM     22  C   UNL     1     116.417 155.652 107.305  1.00  0.00     0.002 A 
ATOM     23  Cl  UNL     1     119.395 157.583 109.133  1.00  0.00    -0.084 Cl
ENDBRANCH  14  17
TORSDOF 1
ENDMDL
MODEL 4
REMARK VINA RESULT:    -7.852      4.449      7.345
REMARK INTER + INTRA:          -8.374
REMARK INTER:                  -7.751
REMARK INTRA:                  -0.623
REMARK UNBOUND:                -0.063
REMARK SMILES Cc1nnc2n1-c1ccc(Cl)cc1C(c1ccccc1Cl)=NC2
REMARK SMILES IDX 1 1 2 2 3 3 4 4 5 5 6 6 7 7 8 8 9 9 10 10 11 11 12 12 13 13
REMARK SMILES IDX 14 14 22 15 23 16 15 17 16 18 20 19 17 20 19 21 18 22 21 23
REMARK H PARENT
ROOT
ATOM      1  C   UNL     1     115.963 153.911 117.058  1.00  0.00     0.090 C 
ATOM      2  C   UNL     1     116.343 155.209 117.663  1.00  0.00     0.134 A 
ATOM      3  N   UNL     1     116.382 155.433 118.961  1.00  0.00    -0.135 NA
ATOM      4  N   UNL     1     116.618 156.763 119.160  1.00  0.00    -0.133 NA
ATOM      5  C   UNL     1     116.726 157.337 117.982  1.00  0.00     0.159 A 
ATOM      6  N   UNL     1     116.603 156.393 116.986  1.00  0.00    -0.281 N 
ATOM      7  C   UNL     1     116.782 156.626 115.597  1.00  0.00     0.058 A 
ATOM      8  C   UNL     1     117.366 155.621 114.806  1.00  0.00     0.029 A 
ATOM      9  C   UNL     1     117.605 155.833 113.447  1.00  0.00     0.023 A 
ATOM     10  C   UNL     1     117.274 157.051 112.869  1.00  0.00     0.041 A 
ATOM     11  Cl  UNL     1     117.578 157.314 111.197  1.00  0.00    -0.084 Cl
ATOM     12  C   UNL     1     116.698 158.061 113.635  1.00  0.00     0.033 A 
ATOM     13  C   UNL     1     116.440 157.861 115.004  1.00  0.00     0.026 A 
ATOM     14  C   UNL     1     115.718 158.956 115.729  1.00  0.00     0.076 C 
ATOM     15  N   UNL     1     115.952 159.358 116.929  1.00  0.00    -0.276 NA
ATOM     16  C   UNL     1     117.028 158.756 117.704  1.00  0.00     0.220 C 
ENDROOT
BRANCH  14  17
ATOM     17  C   UNL     1     114.593 159.621 115.022  1.00  0.00     0.019 A 
ATOM     18  C   UNL     1     114.831 160.876 114.446  1.00  0.00     0.012 A 
ATOM     19  C   UNL     1     113.336 159.016 114.905  1.00  0.00     0.050 A 
ATOM     20  C   UNL     1     113.808 161.529 113.759  1.00  0.00     0.001 A 
ATOM     21  C   UNL     1     112.317 159.679 114.216  1.00  0.00     0.021 A 
ATOM     22  C   UNL     1     112.552 160.932 113.646  1.00  0.00     0.002 A 
ATOM     23  Cl  UNL     1     112.969 157.496 115.636  1.00  0.00    -0.084 Cl
ENDBRANCH  14  17
TORSDOF 1
ENDMDL
MODEL 5
REMARK VINA RESULT:    -7.573      4.366      7.170
REMARK INTER + INTRA:          -8.079
REMARK INTER:                  -7.527
REMARK INTRA:                  -0.552
REMARK UNBOUND:                -0.063
REMARK SMILES Cc1nnc2n1-c1ccc(Cl)cc1C(c1ccccc1Cl)=NC2
REMARK SMILES IDX 1 1 2 2 3 3 4 4 5 5 6 6 7 7 8 8 9 9 10 10 11 11 12 12 13 13
REMARK SMILES IDX 14 14 22 15 23 16 15 17 16 18 20 19 17 20 19 21 18 22 21 23
REMARK H PARENT
ROOT
ATOM      1  C   UNL     1     116.325 154.104 116.530  1.00  0.00     0.090 C 
ATOM      2  C   UNL     1     116.522 155.392 117.236  1.00  0.00     0.134 A 
ATOM      3  N   UNL     1     116.515 155.522 118.547  1.00  0.00    -0.135 NA
ATOM      4  N   UNL     1     116.570 156.853 118.847  1.00  0.00    -0.133 NA
ATOM      5  C   UNL     1     116.615 157.522 117.716  1.00  0.00     0.159 A 
ATOM      6  N   UNL     1     116.631 156.647 116.652  1.00  0.00    -0.281 N 
ATOM      7  C   UNL     1     116.794 157.005 115.288  1.00  0.00     0.058 A 
ATOM      8  C   UNL     1     117.516 156.147 114.439  1.00  0.00     0.029 A 
ATOM      9  C   UNL     1     117.741 156.490 113.105  1.00  0.00     0.023 A 
ATOM     10  C   UNL     1     117.258 157.693 112.609  1.00  0.00     0.041 A 
ATOM     11  Cl  UNL     1     117.545 158.119 110.967  1.00  0.00    -0.084 Cl
ATOM     12  C   UNL     1     116.544 158.559 113.434  1.00  0.00     0.033 A 
ATOM     13  C   UNL     1     116.298 158.225 114.778  1.00  0.00     0.026 A 
ATOM     14  C   UNL     1     115.429 159.159 115.565  1.00  0.00     0.076 C 
ATOM     15  N   UNL     1     115.593 159.497 116.796  1.00  0.00    -0.276 NA
ATOM     16  C   UNL     1     116.730 158.986 117.549  1.00  0.00     0.220 C 
ENDROOT
BRANCH  14  17
ATOM     17  C   UNL     1     114.234 159.721 114.884  1.00  0.00     0.019 A 
ATOM     18  C   UNL     1     113.051 158.972 114.914  1.00  0.00     0.012 A 
ATOM     19  C   UNL     1     114.266 160.969 114.251  1.00  0.00     0.050 A 
ATOM     20  C   UNL     1     111.900 159.468 114.301  1.00  0.00     0.001 A 
ATOM     21  C   UNL     1     113.108 161.458 113.639  1.00  0.00     0.021 A 
ATOM     22  C   UNL     1     111.929 160.709 113.664  1.00  0.00     0.002 A 
ATOM     23  Cl  UNL     1     115.705 161.914 114.139  1.00  0.00    -0.084 Cl
ENDBRANCH  14  17
TORSDOF 1
ENDMDL
MODEL 6
REMARK VINA RESULT:    -7.406      2.794      4.683
REMARK INTER + INTRA:          -7.903
REMARK INTER:                  -8.114
REMARK INTRA:                   0.211
REMARK UNBOUND:                -0.063
REMARK SMILES Cc1nnc2n1-c1ccc(Cl)cc1C(c1ccccc1Cl)=NC2
REMARK SMILES IDX 1 1 2 2 3 3 4 4 5 5 6 6 7 7 8 8 9 9 10 10 11 11 12 12 13 13
REMARK SMILES IDX 14 14 22 15 23 16 15 17 16 18 20 19 17 20 19 21 18 22 21 23
REMARK H PARENT
ROOT
ATOM      1  C   UNL     1     117.443 157.434 115.553  1.00  0.00     0.090 C 
ATOM      2  C   UNL     1     116.859 156.731 114.387  1.00  0.00     0.134 A 
ATOM      3  N   UNL     1     116.564 155.446 114.373  1.00  0.00    -0.135 NA
ATOM      4  N   UNL     1     116.194 155.104 113.105  1.00  0.00    -0.133 NA
ATOM      5  C   UNL     1     116.262 156.184 112.357  1.00  0.00     0.159 A 
ATOM      6  N   UNL     1     116.639 157.264 113.124  1.00  0.00    -0.281 N 
ATOM      7  C   UNL     1     116.702 158.612 112.682  1.00  0.00     0.058 A 
ATOM      8  C   UNL     1     116.354 159.640 113.576  1.00  0.00     0.029 A 
ATOM      9  C   UNL     1     116.355 160.974 113.163  1.00  0.00     0.023 A 
ATOM     10  C   UNL     1     116.693 161.291 111.854  1.00  0.00     0.041 A 
ATOM     11  Cl  UNL     1     116.684 162.934 111.343  1.00  0.00    -0.084 Cl
ATOM     12  C   UNL     1     117.038 160.288 110.952  1.00  0.00     0.033 A 
ATOM     13  C   UNL     1     117.053 158.939 111.354  1.00  0.00     0.026 A 
ATOM     14  C   UNL     1     117.542 157.935 110.355  1.00  0.00     0.076 C 
ATOM     15  N   UNL     1     117.059 156.758 110.160  1.00  0.00    -0.276 NA
ATOM     16  C   UNL     1     115.908 156.304 110.927  1.00  0.00     0.220 C 
ENDROOT
BRANCH  14  17
ATOM     17  C   UNL     1     118.724 158.304 109.534  1.00  0.00     0.019 A 
ATOM     18  C   UNL     1     119.745 159.039 110.150  1.00  0.00     0.012 A 
ATOM     19  C   UNL     1     118.842 157.914 108.195  1.00  0.00     0.050 A 
ATOM     20  C   UNL     1     120.880 159.394 109.421  1.00  0.00     0.001 A 
ATOM     21  C   UNL     1     119.983 158.275 107.472  1.00  0.00     0.021 A 
ATOM     22  C   UNL     1     120.999 159.013 108.084  1.00  0.00     0.002 A 
ATOM     23  Cl  UNL     1     117.596 157.051 107.369  1.00  0.00    -0.084 Cl
ENDBRANCH  14  17
TORSDOF 1
ENDMDL
MODEL 7
REMARK VINA RESULT:    -7.334      3.671      6.577
REMARK INTER + INTRA:          -7.826
REMARK INTER:                  -7.207
REMARK INTRA:                  -0.618
REMARK UNBOUND:                -0.063
REMARK SMILES Cc1nnc2n1-c1ccc(Cl)cc1C(c1ccccc1Cl)=NC2
REMARK SMILES IDX 1 1 2 2 3 3 4 4 5 5 6 6 7 7 8 8 9 9 10 10 11 11 12 12 13 13
REMARK SMILES IDX 14 14 22 15 23 16 15 17 16 18 20 19 17 20 19 21 18 22 21 23
REMARK H PARENT
ROOT
ATOM      1  C   UNL     1     116.627 163.623 113.390  1.00  0.00     0.090 C 
ATOM      2  C   UNL     1     115.312 162.985 113.632  1.00  0.00     0.134 A 
ATOM      3  N   UNL     1     114.234 163.642 114.011  1.00  0.00    -0.135 NA
ATOM      4  N   UNL     1     113.253 162.734 114.288  1.00  0.00    -0.133 NA
ATOM      5  C   UNL     1     113.740 161.532 114.072  1.00  0.00     0.159 A 
ATOM      6  N   UNL     1     115.035 161.625 113.611  1.00  0.00    -0.281 N 
ATOM      7  C   UNL     1     115.834 160.541 113.162  1.00  0.00     0.058 A 
ATOM      8  C   UNL     1     116.725 160.746 112.093  1.00  0.00     0.029 A 
ATOM      9  C   UNL     1     117.490 159.692 111.591  1.00  0.00     0.023 A 
ATOM     10  C   UNL     1     117.366 158.424 112.143  1.00  0.00     0.041 A 
ATOM     11  Cl  UNL     1     118.301 157.124 111.517  1.00  0.00    -0.084 Cl
ATOM     12  C   UNL     1     116.487 158.199 113.199  1.00  0.00     0.033 A 
ATOM     13  C   UNL     1     115.716 159.252 113.725  1.00  0.00     0.026 A 
ATOM     14  C   UNL     1     114.879 158.948 114.931  1.00  0.00     0.076 C 
ATOM     15  N   UNL     1     113.693 159.389 115.165  1.00  0.00    -0.276 NA
ATOM     16  C   UNL     1     113.026 160.244 114.193  1.00  0.00     0.220 C 
ENDROOT
BRANCH  14  17
ATOM     17  C   UNL     1     115.482 158.093 115.987  1.00  0.00     0.019 A 
ATOM     18  C   UNL     1     116.336 158.703 116.914  1.00  0.00     0.012 A 
ATOM     19  C   UNL     1     115.194 156.727 116.081  1.00  0.00     0.050 A 
ATOM     20  C   UNL     1     116.912 157.942 117.932  1.00  0.00     0.001 A 
ATOM     21  C   UNL     1     115.777 155.972 117.103  1.00  0.00     0.021 A 
ATOM     22  C   UNL     1     116.633 156.578 118.025  1.00  0.00     0.002 A 
ATOM     23  Cl  UNL     1     114.190 155.910 114.939  1.00  0.00    -0.084 Cl
ENDBRANCH  14  17
TORSDOF 1
ENDMDL
MODEL 8
REMARK VINA RESULT:    -7.263      4.016      5.999
REMARK INTER + INTRA:          -7.751
REMARK INTER:                  -7.181
REMARK INTRA:                  -0.570
REMARK UNBOUND:                -0.063
REMARK SMILES Cc1nnc2n1-c1ccc(Cl)cc1C(c1ccccc1Cl)=NC2
REMARK SMILES IDX 1 1 2 2 3 3 4 4 5 5 6 6 7 7 8 8 9 9 10 10 11 11 12 12 13 13
REMARK SMILES IDX 14 14 22 15 23 16 15 17 16 18 20 19 17 20 19 21 18 22 21 23
REMARK H PARENT
ROOT
ATOM      1  C   UNL     1     116.987 156.212 118.249  1.00  0.00     0.090 C 
ATOM      2  C   UNL     1     116.191 155.442 117.265  1.00  0.00     0.134 A 
ATOM      3  N   UNL     1     115.973 154.145 117.347  1.00  0.00    -0.135 NA
ATOM      4  N   UNL     1     115.341 153.742 116.206  1.00  0.00    -0.133 NA
ATOM      5  C   UNL     1     115.175 154.798 115.440  1.00  0.00     0.159 A 
ATOM      6  N   UNL     1     115.657 155.921 116.076  1.00  0.00    -0.281 N 
ATOM      7  C   UNL     1     115.540 157.255 115.603  1.00  0.00     0.058 A 
ATOM      8  C   UNL     1     115.349 158.294 116.531  1.00  0.00     0.029 A 
ATOM      9  C   UNL     1     115.180 159.611 116.100  1.00  0.00     0.023 A 
ATOM     10  C   UNL     1     115.189 159.901 114.742  1.00  0.00     0.041 A 
ATOM     11  Cl  UNL     1     114.971 161.522 114.213  1.00  0.00    -0.084 Cl
ATOM     12  C   UNL     1     115.374 158.886 113.807  1.00  0.00     0.033 A 
ATOM     13  C   UNL     1     115.557 157.554 114.223  1.00  0.00     0.026 A 
ATOM     14  C   UNL     1     115.858 156.542 113.160  1.00  0.00     0.076 C 
ATOM     15  N   UNL     1     115.411 155.336 113.107  1.00  0.00    -0.276 NA
ATOM     16  C   UNL     1     114.495 154.852 114.130  1.00  0.00     0.220 C 
ENDROOT
BRANCH  14  17
ATOM     17  C   UNL     1     116.797 156.942 112.079  1.00  0.00     0.019 A 
ATOM     18  C   UNL     1     116.298 157.016 110.772  1.00  0.00     0.012 A 
ATOM     19  C   UNL     1     118.133 157.263 112.346  1.00  0.00     0.050 A 
ATOM     20  C   UNL     1     117.141 157.401 109.730  1.00  0.00     0.001 A 
ATOM     21  C   UNL     1     118.970 157.647 111.294  1.00  0.00     0.021 A 
ATOM     22  C   UNL     1     118.475 157.716 109.990  1.00  0.00     0.002 A 
ATOM     23  Cl  UNL     1     118.817 157.142 113.926  1.00  0.00    -0.084 Cl
ENDBRANCH  14  17
TORSDOF 1
ENDMDL
MODEL 9
REMARK VINA RESULT:    -7.191      3.846      5.724
REMARK INTER + INTRA:          -7.675
REMARK INTER:                  -7.528
REMARK INTRA:                  -0.147
REMARK UNBOUND:                -0.063
REMARK SMILES Cc1nnc2n1-c1ccc(Cl)cc1C(c1ccccc1Cl)=NC2
REMARK SMILES IDX 1 1 2 2 3 3 4 4 5 5 6 6 7 7 8 8 9 9 10 10 11 11 12 12 13 13
REMARK SMILES IDX 14 14 22 15 23 16 15 17 16 18 20 19 17 20 19 21 18 22 21 23
REMARK H PARENT
ROOT
ATOM      1  C   UNL     1     116.979 156.891 118.047  1.00  0.00     0.090 C 
ATOM      2  C   UNL     1     116.233 156.028 117.101  1.00  0.00     0.134 A 
ATOM      3  N   UNL     1     116.030 154.739 117.284  1.00  0.00    -0.135 NA
ATOM      4  N   UNL     1     115.450 154.232 116.157  1.00  0.00    -0.133 NA
ATOM      5  C   UNL     1     115.299 155.217 115.299  1.00  0.00     0.159 A 
ATOM      6  N   UNL     1     115.740 156.398 115.857  1.00  0.00    -0.281 N 
ATOM      7  C   UNL     1     115.624 157.685 115.269  1.00  0.00     0.058 A 
ATOM      8  C   UNL     1     115.381 158.794 116.099  1.00  0.00     0.029 A 
ATOM      9  C   UNL     1     115.211 160.068 115.554  1.00  0.00     0.023 A 
ATOM     10  C   UNL     1     115.270 160.244 114.178  1.00  0.00     0.041 A 
ATOM     11  Cl  UNL     1     115.050 161.812 113.506  1.00  0.00    -0.084 Cl
ATOM     12  C   UNL     1     115.506 159.158 113.338  1.00  0.00     0.033 A 
ATOM     13  C   UNL     1     115.691 157.869 113.871  1.00  0.00     0.026 A 
ATOM     14  C   UNL     1     116.048 156.778 112.908  1.00  0.00     0.076 C 
ATOM     15  N   UNL     1     115.621 155.564 112.940  1.00  0.00    -0.276 NA
ATOM     16  C   UNL     1     114.671 155.150 113.964  1.00  0.00     0.220 C 
ENDROOT
BRANCH  14  17
ATOM     17  C   UNL     1     117.024 157.102 111.835  1.00  0.00     0.019 A 
ATOM     18  C   UNL     1     118.216 157.738 112.205  1.00  0.00     0.012 A 
ATOM     19  C   UNL     1     116.786 156.766 110.497  1.00  0.00     0.050 A 
ATOM     20  C   UNL     1     119.167 158.047 111.232  1.00  0.00     0.001 A 
ATOM     21  C   UNL     1     117.745 157.080 109.530  1.00  0.00     0.021 A 
ATOM     22  C   UNL     1     118.931 157.719 109.897  1.00  0.00     0.002 A 
ATOM     23  Cl  UNL     1     115.316 156.027 109.975  1.00  0.00    -0.084 Cl
ENDBRANCH  14  17
TORSDOF 1
ENDMDL
