MODEL 1
REMARK VINA RESULT:   -10.581      0.000      0.000
REMARK INTER + INTRA:         -11.603
REMARK INTER:                 -11.199
REMARK INTRA:                  -0.403
REMARK UNBOUND:                -0.403
REMARK SMILES Cc1nnc2n1-c1ccc(Cl)cc1C(c1ccccc1)=NC2
REMARK SMILES IDX 1 1 2 2 3 3 4 4 5 5 6 6 7 7 8 8 9 9 10 10 11 11 12 12 13 13
REMARK SMILES IDX 14 14 21 15 22 16 15 17 16 18 20 19 17 20 19 21 18 22
REMARK H PARENT
ROOT
ATOM      1  C   UNL     1     115.469 160.723 113.015  1.00  0.00     0.090 C 
ATOM      2  C   UNL     1     116.690 160.825 112.183  1.00  0.00     0.134 A 
ATOM      3  N   UNL     1     117.144 161.950 111.670  1.00  0.00    -0.135 NA
ATOM      4  N   UNL     1     118.192 161.656 110.844  1.00  0.00    -0.133 NA
ATOM      5  C   UNL     1     118.369 160.353 110.865  1.00  0.00     0.159 A 
ATOM      6  N   UNL     1     117.469 159.770 111.731  1.00  0.00    -0.281 N 
ATOM      7  C   UNL     1     117.459 158.401 112.105  1.00  0.00     0.058 A 
ATOM      8  C   UNL     1     117.131 158.053 113.426  1.00  0.00     0.029 A 
ATOM      9  C   UNL     1     117.205 156.722 113.847  1.00  0.00     0.023 A 
ATOM     10  C   UNL     1     117.619 155.736 112.960  1.00  0.00     0.041 A 
ATOM     11  Cl  UNL     1     117.727 154.103 113.487  1.00  0.00    -0.084 Cl
ATOM     12  C   UNL     1     117.945 156.062 111.646  1.00  0.00     0.033 A 
ATOM     13  C   UNL     1     117.849 157.393 111.200  1.00  0.00     0.026 A 
ATOM     14  C   UNL     1     118.101 157.641 109.742  1.00  0.00     0.075 C 
ATOM     15  N   UNL     1     118.819 158.603 109.271  1.00  0.00    -0.276 NA
ATOM     16  C   UNL     1     119.421 159.580 110.166  1.00  0.00     0.220 C 
ENDROOT
BRANCH  14  17
ATOM     17  C   UNL     1     117.477 156.711 108.743  1.00  0.00     0.000 A 
ATOM     18  C   UNL     1     118.270 156.193 107.711  1.00  0.00     0.010 A 
ATOM     19  C   UNL     1     116.118 156.381 108.807  1.00  0.00     0.010 A 
ATOM     20  C   UNL     1     117.713 155.328 106.769  1.00  0.00     0.001 A 
ATOM     21  C   UNL     1     115.566 155.514 107.861  1.00  0.00     0.001 A 
ATOM     22  C   UNL     1     116.364 154.985 106.847  1.00  0.00     0.000 A 
ENDBRANCH  14  17
TORSDOF 1
ENDMDL
MODEL 2
REMARK VINA RESULT:    -9.296      1.317      1.575
REMARK INTER + INTRA:         -10.242
REMARK INTER:                 -10.294
REMARK INTRA:                   0.051
REMARK UNBOUND:                -0.403
REMARK SMILES Cc1nnc2n1-c1ccc(Cl)cc1C(c1ccccc1)=NC2
REMARK SMILES IDX 1 1 2 2 3 3 4 4 5 5 6 6 7 7 8 8 9 9 10 10 11 11 12 12 13 13
REMARK SMILES IDX 14 14 21 15 22 16 15 17 16 18 20 19 17 20 19 21 18 22
REMARK H PARENT
ROOT
ATOM      1  C   UNL     1     117.043 162.202 111.266  1.00  0.00     0.090 C 
ATOM      2  C   UNL     1     118.327 161.713 110.711  1.00  0.00     0.134 A 
ATOM      3  N   UNL     1     119.228 162.487 110.140  1.00  0.00    -0.135 NA
ATOM      4  N   UNL     1     120.208 161.692 109.615  1.00  0.00    -0.133 NA
ATOM      5  C   UNL     1     119.896 160.441 109.875  1.00  0.00     0.159 A 
ATOM      6  N   UNL     1     118.730 160.390 110.607  1.00  0.00    -0.281 N 
ATOM      7  C   UNL     1     118.170 159.218 111.178  1.00  0.00     0.058 A 
ATOM      8  C   UNL     1     117.547 159.297 112.434  1.00  0.00     0.029 A 
ATOM      9  C   UNL     1     117.071 158.142 113.063  1.00  0.00     0.023 A 
ATOM     10  C   UNL     1     117.227 156.904 112.450  1.00  0.00     0.041 A 
ATOM     11  Cl  UNL     1     116.657 155.484 113.235  1.00  0.00    -0.084 Cl
ATOM     12  C   UNL     1     117.838 156.808 111.203  1.00  0.00     0.033 A 
ATOM     13  C   UNL     1     118.297 157.964 110.546  1.00  0.00     0.026 A 
ATOM     14  C   UNL     1     118.834 157.788 109.156  1.00  0.00     0.075 C 
ATOM     15  N   UNL     1     119.913 158.334 108.707  1.00  0.00    -0.276 NA
ATOM     16  C   UNL     1     120.688 159.234 109.548  1.00  0.00     0.220 C 
ENDROOT
BRANCH  14  17
ATOM     17  C   UNL     1     118.071 156.916 108.203  1.00  0.00     0.000 A 
ATOM     18  C   UNL     1     118.667 156.554 106.989  1.00  0.00     0.010 A 
ATOM     19  C   UNL     1     116.769 156.488 108.493  1.00  0.00     0.010 A 
ATOM     20  C   UNL     1     117.978 155.746 106.085  1.00  0.00     0.001 A 
ATOM     21  C   UNL     1     116.085 155.677 107.584  1.00  0.00     0.001 A 
ATOM     22  C   UNL     1     116.690 155.304 106.384  1.00  0.00     0.000 A 
ENDBRANCH  14  17
TORSDOF 1
ENDMDL
MODEL 3
REMARK VINA RESULT:    -9.089      2.892      6.358
REMARK INTER + INTRA:         -10.024
REMARK INTER:                 -10.335
REMARK INTRA:                   0.312
REMARK UNBOUND:                -0.403
REMARK SMILES Cc1nnc2n1-c1ccc(Cl)cc1C(c1ccccc1)=NC2
REMARK SMILES IDX 1 1 2 2 3 3 4 4 5 5 6 6 7 7 8 8 9 9 10 10 11 11 12 12 13 13
REMARK SMILES IDX 14 14 21 15 22 16 15 17 16 18 20 19 17 20 19 21 18 22
REMARK H PARENT
ROOT
ATOM      1  C   UNL     1     117.474 156.473 106.463  1.00  0.00     0.090 C 
ATOM      2  C   UNL     1     117.541 156.186 107.915  1.00  0.00     0.134 A 
ATOM      3  N   UNL     1     116.835 155.250 108.518  1.00  0.00    -0.135 NA
ATOM      4  N   UNL     1     117.033 155.362 109.865  1.00  0.00    -0.133 NA
ATOM      5  C   UNL     1     117.861 156.363 110.070  1.00  0.00     0.159 A 
ATOM      6  N   UNL     1     118.253 156.902 108.864  1.00  0.00    -0.281 N 
ATOM      7  C   UNL     1     119.243 157.905 108.698  1.00  0.00     0.058 A 
ATOM      8  C   UNL     1     120.103 157.844 107.588  1.00  0.00     0.029 A 
ATOM      9  C   UNL     1     121.147 158.763 107.449  1.00  0.00     0.023 A 
ATOM     10  C   UNL     1     121.349 159.737 108.420  1.00  0.00     0.041 A 
ATOM     11  Cl  UNL     1     122.646 160.853 108.255  1.00  0.00    -0.084 Cl
ATOM     12  C   UNL     1     120.505 159.814 109.525  1.00  0.00     0.033 A 
ATOM     13  C   UNL     1     119.432 158.914 109.665  1.00  0.00     0.026 A 
ATOM     14  C   UNL     1     118.501 159.141 110.818  1.00  0.00     0.075 C 
ATOM     15  N   UNL     1     118.053 158.216 111.598  1.00  0.00    -0.276 NA
ATOM     16  C   UNL     1     118.407 156.823 111.367  1.00  0.00     0.220 C 
ENDROOT
BRANCH  14  17
ATOM     17  C   UNL     1     118.043 160.541 111.100  1.00  0.00     0.000 A 
ATOM     18  C   UNL     1     116.952 160.740 111.954  1.00  0.00     0.010 A 
ATOM     19  C   UNL     1     118.666 161.644 110.500  1.00  0.00     0.010 A 
ATOM     20  C   UNL     1     116.506 162.033 112.230  1.00  0.00     0.001 A 
ATOM     21  C   UNL     1     118.216 162.936 110.782  1.00  0.00     0.001 A 
ATOM     22  C   UNL     1     117.141 163.130 111.649  1.00  0.00     0.000 A 
ENDBRANCH  14  17
TORSDOF 1
ENDMDL
MODEL 4
REMARK VINA RESULT:    -8.546      2.025      4.912
REMARK INTER + INTRA:          -9.449
REMARK INTER:                  -8.947
REMARK INTRA:                  -0.501
REMARK UNBOUND:                -0.403
REMARK SMILES Cc1nnc2n1-c1ccc(Cl)cc1C(c1ccccc1)=NC2
REMARK SMILES IDX 1 1 2 2 3 3 4 4 5 5 6 6 7 7 8 8 9 9 10 10 11 11 12 12 13 13
REMARK SMILES IDX 14 14 21 15 22 16 15 17 16 18 20 19 17 20 19 21 18 22
REMARK H PARENT
ROOT
ATOM      1  C   UNL     1     120.821 157.979 107.880  1.00  0.00     0.090 C 
ATOM      2  C   UNL     1     120.035 158.876 108.759  1.00  0.00     0.134 A 
ATOM      3  N   UNL     1     120.485 160.013 109.250  1.00  0.00    -0.135 NA
ATOM      4  N   UNL     1     119.559 160.499 110.129  1.00  0.00    -0.133 NA
ATOM      5  C   UNL     1     118.551 159.656 110.162  1.00  0.00     0.159 A 
ATOM      6  N   UNL     1     118.775 158.621 109.280  1.00  0.00    -0.281 N 
ATOM      7  C   UNL     1     117.841 157.604 108.955  1.00  0.00     0.058 A 
ATOM      8  C   UNL     1     117.776 157.128 107.635  1.00  0.00     0.029 A 
ATOM      9  C   UNL     1     116.803 156.195 107.264  1.00  0.00     0.023 A 
ATOM     10  C   UNL     1     115.882 155.743 108.203  1.00  0.00     0.041 A 
ATOM     11  Cl  UNL     1     114.675 154.611 107.738  1.00  0.00    -0.084 Cl
ATOM     12  C   UNL     1     115.933 156.201 109.516  1.00  0.00     0.033 A 
ATOM     13  C   UNL     1     116.925 157.119 109.911  1.00  0.00     0.026 A 
ATOM     14  C   UNL     1     116.986 157.469 111.368  1.00  0.00     0.075 C 
ATOM     15  N   UNL     1     117.129 158.663 111.835  1.00  0.00    -0.276 NA
ATOM     16  C   UNL     1     117.293 159.792 110.931  1.00  0.00     0.220 C 
ENDROOT
BRANCH  14  17
ATOM     17  C   UNL     1     116.875 156.360 112.372  1.00  0.00     0.000 A 
ATOM     18  C   UNL     1     115.735 156.290 113.183  1.00  0.00     0.010 A 
ATOM     19  C   UNL     1     117.900 155.420 112.533  1.00  0.00     0.010 A 
ATOM     20  C   UNL     1     115.609 155.269 114.125  1.00  0.00     0.001 A 
ATOM     21  C   UNL     1     117.768 154.400 113.478  1.00  0.00     0.001 A 
ATOM     22  C   UNL     1     116.622 154.323 114.269  1.00  0.00     0.000 A 
ENDBRANCH  14  17
TORSDOF 1
ENDMDL
MODEL 5
REMARK VINA RESULT:    -7.240      4.386      7.057
REMARK INTER + INTRA:          -8.067
REMARK INTER:                  -7.664
REMARK INTRA:                  -0.403
REMARK UNBOUND:                -0.403
REMARK SMILES Cc1nnc2n1-c1ccc(Cl)cc1C(c1ccccc1)=NC2
REMARK SMILES IDX 1 1 2 2 3 3 4 4 5 5 6 6 7 7 8 8 9 9 10 10 11 11 12 12 13 13
REMARK SMILES IDX 14 14 21 15 22 16 15 17 16 18 20 19 17 20 19 21 18 22
REMARK H PARENT
ROOT
ATOM      1  C   UNL     1     115.943 153.829 116.738  1.00  0.00     0.090 C 
ATOM      2  C   UNL     1     116.315 155.100 117.404  1.00  0.00     0.134 A 
ATOM      3  N   UNL     1     116.335 155.273 118.710  1.00  0.00    -0.135 NA
ATOM      4  N   UNL     1     116.576 156.593 118.966  1.00  0.00    -0.133 NA
ATOM      5  C   UNL     1     116.705 157.211 117.812  1.00  0.00     0.159 A 
ATOM      6  N   UNL     1     116.590 156.307 116.779  1.00  0.00    -0.281 N 
ATOM      7  C   UNL     1     116.810 156.597 115.408  1.00  0.00     0.058 A 
ATOM      8  C   UNL     1     117.428 155.633 114.593  1.00  0.00     0.029 A 
ATOM      9  C   UNL     1     117.743 155.925 113.263  1.00  0.00     0.023 A 
ATOM     10  C   UNL     1     117.457 157.183 112.743  1.00  0.00     0.041 A 
ATOM     11  Cl  UNL     1     117.864 157.545 111.112  1.00  0.00    -0.084 Cl
ATOM     12  C   UNL     1     116.842 158.149 113.534  1.00  0.00     0.033 A 
ATOM     13  C   UNL     1     116.494 157.860 114.867  1.00  0.00     0.026 A 
ATOM     14  C   UNL     1     115.727 158.911 115.612  1.00  0.00     0.075 C 
ATOM     15  N   UNL     1     115.971 159.282 116.823  1.00  0.00    -0.276 NA
ATOM     16  C   UNL     1     117.026 158.640 117.592  1.00  0.00     0.220 C 
ENDROOT
BRANCH  14  17
ATOM     17  C   UNL     1     114.588 159.592 114.913  1.00  0.00     0.000 A 
ATOM     18  C   UNL     1     114.811 160.832 114.302  1.00  0.00     0.010 A 
ATOM     19  C   UNL     1     113.307 159.027 114.891  1.00  0.00     0.010 A 
ATOM     20  C   UNL     1     113.767 161.487 113.647  1.00  0.00     0.001 A 
ATOM     21  C   UNL     1     112.266 159.687 114.233  1.00  0.00     0.001 A 
ATOM     22  C   UNL     1     112.497 160.912 113.609  1.00  0.00     0.000 A 
ENDBRANCH  14  17
TORSDOF 1
ENDMDL
MODEL 6
REMARK VINA RESULT:    -7.219      3.294      6.603
REMARK INTER + INTRA:          -8.044
REMARK INTER:                  -8.368
REMARK INTRA:                   0.324
REMARK UNBOUND:                -0.403
REMARK SMILES Cc1nnc2n1-c1ccc(Cl)cc1C(c1ccccc1)=NC2
REMARK SMILES IDX 1 1 2 2 3 3 4 4 5 5 6 6 7 7 8 8 9 9 10 10 11 11 12 12 13 13
REMARK SMILES IDX 14 14 21 15 22 16 15 17 16 18 20 19 17 20 19 21 18 22
REMARK H PARENT
ROOT
ATOM      1  C   UNL     1     117.445 155.600 110.768  1.00  0.00     0.090 C 
ATOM      2  C   UNL     1     117.499 155.780 112.237  1.00  0.00     0.134 A 
ATOM      3  N   UNL     1     117.638 154.794 113.100  1.00  0.00    -0.135 NA
ATOM      4  N   UNL     1     117.499 155.301 114.360  1.00  0.00    -0.133 NA
ATOM      5  C   UNL     1     117.281 156.594 114.255  1.00  0.00     0.159 A 
ATOM      6  N   UNL     1     117.310 156.967 112.929  1.00  0.00    -0.281 N 
ATOM      7  C   UNL     1     117.248 158.302 112.452  1.00  0.00     0.058 A 
ATOM      8  C   UNL     1     118.016 158.668 111.333  1.00  0.00     0.029 A 
ATOM      9  C   UNL     1     118.048 159.996 110.899  1.00  0.00     0.023 A 
ATOM     10  C   UNL     1     117.328 160.968 111.584  1.00  0.00     0.041 A 
ATOM     11  Cl  UNL     1     117.386 162.604 111.059  1.00  0.00    -0.084 Cl
ATOM     12  C   UNL     1     116.560 160.624 112.693  1.00  0.00     0.033 A 
ATOM     13  C   UNL     1     116.495 159.286 113.125  1.00  0.00     0.026 A 
ATOM     14  C   UNL     1     115.552 158.980 114.250  1.00  0.00     0.075 C 
ATOM     15  N   UNL     1     115.829 158.231 115.263  1.00  0.00    -0.276 NA
ATOM     16  C   UNL     1     117.122 157.569 115.357  1.00  0.00     0.220 C 
ENDROOT
BRANCH  14  17
ATOM     17  C   UNL     1     114.177 159.581 114.211  1.00  0.00     0.000 A 
ATOM     18  C   UNL     1     113.123 158.904 114.835  1.00  0.00     0.010 A 
ATOM     19  C   UNL     1     113.929 160.783 113.536  1.00  0.00     0.010 A 
ATOM     20  C   UNL     1     111.835 159.441 114.811  1.00  0.00     0.001 A 
ATOM     21  C   UNL     1     112.638 161.316 113.516  1.00  0.00     0.001 A 
ATOM     22  C   UNL     1     111.594 160.648 114.156  1.00  0.00     0.000 A 
ENDBRANCH  14  17
TORSDOF 1
ENDMDL
MODEL 7
REMARK VINA RESULT:    -6.664      2.861      4.651
REMARK INTER + INTRA:          -7.457
REMARK INTER:                  -7.486
REMARK INTRA:                   0.029
REMARK UNBOUND:                -0.403
REMARK SMILES Cc1nnc2n1-c1ccc(Cl)cc1C(c1ccccc1)=NC2
REMARK SMILES IDX 1 1 2 2 3 3 4 4 5 5 6 6 7 7 8 8 9 9 10 10 11 11 12 12 13 13
REMARK SMILES IDX 14 14 21 15 22 16 15 17 16 18 20 19 17 20 19 21 18 22
REMARK H PARENT
ROOT
ATOM      1  C   UNL     1     111.134 159.709 113.862  1.00  0.00     0.090 C 
ATOM      2  C   UNL     1     112.190 160.748 113.862  1.00  0.00     0.134 A 
ATOM      3  N   UNL     1     111.989 162.007 113.529  1.00  0.00    -0.135 NA
ATOM      4  N   UNL     1     113.198 162.643 113.498  1.00  0.00    -0.133 NA
ATOM      5  C   UNL     1     114.124 161.765 113.816  1.00  0.00     0.159 A 
ATOM      6  N   UNL     1     113.541 160.550 114.100  1.00  0.00    -0.281 N 
ATOM      7  C   UNL     1     114.221 159.413 114.610  1.00  0.00     0.058 A 
ATOM      8  C   UNL     1     113.576 158.591 115.549  1.00  0.00     0.029 A 
ATOM      9  C   UNL     1     114.255 157.520 116.138  1.00  0.00     0.023 A 
ATOM     10  C   UNL     1     115.582 157.273 115.807  1.00  0.00     0.041 A 
ATOM     11  Cl  UNL     1     116.419 155.967 116.548  1.00  0.00    -0.084 Cl
ATOM     12  C   UNL     1     116.236 158.075 114.876  1.00  0.00     0.033 A 
ATOM     13  C   UNL     1     115.558 159.139 114.253  1.00  0.00     0.026 A 
ATOM     14  C   UNL     1     116.295 159.878 113.176  1.00  0.00     0.075 C 
ATOM     15  N   UNL     1     116.328 161.161 113.051  1.00  0.00    -0.276 NA
ATOM     16  C   UNL     1     115.577 162.009 113.965  1.00  0.00     0.220 C 
ENDROOT
BRANCH  14  17
ATOM     17  C   UNL     1     117.057 159.080 112.159  1.00  0.00     0.000 A 
ATOM     18  C   UNL     1     117.952 159.742 111.309  1.00  0.00     0.010 A 
ATOM     19  C   UNL     1     116.863 157.700 112.025  1.00  0.00     0.010 A 
ATOM     20  C   UNL     1     118.671 159.023 110.354  1.00  0.00     0.001 A 
ATOM     21  C   UNL     1     117.587 156.985 111.066  1.00  0.00     0.001 A 
ATOM     22  C   UNL     1     118.492 157.646 110.236  1.00  0.00     0.000 A 
ENDBRANCH  14  17
TORSDOF 1
ENDMDL
