MODEL 1
REMARK VINA RESULT:    -7.656      0.000      0.000
REMARK INTER + INTRA:          -7.773
REMARK INTER:                  -8.103
REMARK INTRA:                   0.331
REMARK UNBOUND:                 0.331
REMARK SMILES Cc1nnc2n1-c1ccc(Cl)cc1C(c1ccccc1)=NC2
REMARK SMILES IDX 1 1 2 2 3 3 4 4 5 5 6 6 7 7 8 8 9 9 10 10 11 11 12 12 13 13
REMARK SMILES IDX 14 14 21 15 22 16 15 17 16 18 20 19 17 20 19 21 18 22
REMARK H PARENT
ROOT
ATOM      1  C   UNL     1     141.798  95.615 130.759  1.00  0.00     0.090 C 
ATOM      2  C   UNL     1     142.874  96.354 131.460  1.00  0.00     0.134 A 
ATOM      3  N   UNL     1     144.158  96.077 131.346  1.00  0.00    -0.135 NA
ATOM      4  N   UNL     1     144.847  96.851 132.236  1.00  0.00    -0.133 NA
ATOM      5  C   UNL     1     143.976  97.596 132.882  1.00  0.00     0.159 A 
ATOM      6  N   UNL     1     142.706  97.356 132.404  1.00  0.00    -0.281 N 
ATOM      7  C   UNL     1     141.541  98.076 132.773  1.00  0.00     0.058 A 
ATOM      8  C   UNL     1     140.563  98.344 131.801  1.00  0.00     0.029 A 
ATOM      9  C   UNL     1     139.451  99.132 132.112  1.00  0.00     0.023 A 
ATOM     10  C   UNL     1     139.316  99.668 133.387  1.00  0.00     0.041 A 
ATOM     11  Cl  UNL     1     137.957 100.653 133.761  1.00  0.00    -0.084 Cl
ATOM     12  C   UNL     1     140.273  99.411 134.364  1.00  0.00     0.033 A 
ATOM     13  C   UNL     1     141.384  98.596 134.074  1.00  0.00     0.026 A 
ATOM     14  C   UNL     1     142.303  98.270 135.213  1.00  0.00     0.075 C 
ATOM     15  N   UNL     1     143.591  98.301 135.153  1.00  0.00    -0.276 NA
ATOM     16  C   UNL     1     144.263  98.628 133.904  1.00  0.00     0.220 C 
ENDROOT
BRANCH  14  17
ATOM     17  C   UNL     1     141.697  97.873 136.527  1.00  0.00     0.000 A 
ATOM     18  C   UNL     1     142.434  97.058 137.395  1.00  0.00     0.010 A 
ATOM     19  C   UNL     1     140.404  98.277 136.881  1.00  0.00     0.010 A 
ATOM     20  C   UNL     1     141.891  96.675 138.623  1.00  0.00     0.001 A 
ATOM     21  C   UNL     1     139.867  97.890 138.112  1.00  0.00     0.001 A 
ATOM     22  C   UNL     1     140.611  97.094 138.982  1.00  0.00     0.000 A 
ENDBRANCH  14  17
TORSDOF 1
ENDMDL
MODEL 2
REMARK VINA RESULT:    -7.596      3.322      5.064
REMARK INTER + INTRA:          -7.709
REMARK INTER:                  -7.297
REMARK INTRA:                  -0.412
REMARK UNBOUND:                 0.331
REMARK SMILES Cc1nnc2n1-c1ccc(Cl)cc1C(c1ccccc1)=NC2
REMARK SMILES IDX 1 1 2 2 3 3 4 4 5 5 6 6 7 7 8 8 9 9 10 10 11 11 12 12 13 13
REMARK SMILES IDX 14 14 21 15 22 16 15 17 16 18 20 19 17 20 19 21 18 22
REMARK H PARENT
ROOT
ATOM      1  C   UNL     1     139.115  97.688 134.000  1.00  0.00     0.090 C 
ATOM      2  C   UNL     1     140.439  98.302 133.748  1.00  0.00     0.134 A 
ATOM      3  N   UNL     1     140.731  99.021 132.682  1.00  0.00    -0.135 NA
ATOM      4  N   UNL     1     142.069  99.300 132.704  1.00  0.00    -0.133 NA
ATOM      5  C   UNL     1     142.578  98.752 133.786  1.00  0.00     0.159 A 
ATOM      6  N   UNL     1     141.584  98.137 134.514  1.00  0.00    -0.281 N 
ATOM      7  C   UNL     1     141.745  97.562 135.801  1.00  0.00     0.058 A 
ATOM      8  C   UNL     1     140.709  97.682 136.742  1.00  0.00     0.029 A 
ATOM      9  C   UNL     1     140.877  97.209 138.046  1.00  0.00     0.023 A 
ATOM     10  C   UNL     1     142.083  96.628 138.424  1.00  0.00     0.041 A 
ATOM     11  Cl  UNL     1     142.293  96.065 140.034  1.00  0.00    -0.084 Cl
ATOM     12  C   UNL     1     143.119  96.497 137.504  1.00  0.00     0.033 A 
ATOM     13  C   UNL     1     142.955  96.944 136.179  1.00  0.00     0.026 A 
ATOM     14  C   UNL     1     144.073  96.657 135.222  1.00  0.00     0.075 C 
ATOM     15  N   UNL     1     144.552  97.501 134.373  1.00  0.00    -0.276 NA
ATOM     16  C   UNL     1     143.980  98.834 134.257  1.00  0.00     0.220 C 
ENDROOT
BRANCH  14  17
ATOM     17  C   UNL     1     144.691  95.290 135.237  1.00  0.00     0.000 A 
ATOM     18  C   UNL     1     144.072  94.257 134.522  1.00  0.00     0.010 A 
ATOM     19  C   UNL     1     145.852  95.026 135.976  1.00  0.00     0.010 A 
ATOM     20  C   UNL     1     144.627  92.977 134.523  1.00  0.00     0.001 A 
ATOM     21  C   UNL     1     146.403  93.742 135.971  1.00  0.00     0.001 A 
ATOM     22  C   UNL     1     145.794  92.721 135.242  1.00  0.00     0.000 A 
ENDBRANCH  14  17
TORSDOF 1
ENDMDL
MODEL 3
REMARK VINA RESULT:    -7.440      3.191      6.109
REMARK INTER + INTRA:          -7.544
REMARK INTER:                  -7.062
REMARK INTRA:                  -0.481
REMARK UNBOUND:                 0.331
REMARK SMILES Cc1nnc2n1-c1ccc(Cl)cc1C(c1ccccc1)=NC2
REMARK SMILES IDX 1 1 2 2 3 3 4 4 5 5 6 6 7 7 8 8 9 9 10 10 11 11 12 12 13 13
REMARK SMILES IDX 14 14 21 15 22 16 15 17 16 18 20 19 17 20 19 21 18 22
REMARK H PARENT
ROOT
ATOM      1  C   UNL     1     141.294  96.452 137.502  1.00  0.00     0.090 C 
ATOM      2  C   UNL     1     140.779  97.693 136.877  1.00  0.00     0.134 A 
ATOM      3  N   UNL     1     140.143  98.643 137.532  1.00  0.00    -0.135 NA
ATOM      4  N   UNL     1     139.686  99.559 136.628  1.00  0.00    -0.133 NA
ATOM      5  C   UNL     1     140.051  99.160 135.429  1.00  0.00     0.159 A 
ATOM      6  N   UNL     1     140.786  97.999 135.524  1.00  0.00    -0.281 N 
ATOM      7  C   UNL     1     141.455  97.360 134.447  1.00  0.00     0.058 A 
ATOM      8  C   UNL     1     142.702  96.755 134.676  1.00  0.00     0.029 A 
ATOM      9  C   UNL     1     143.426  96.202 133.616  1.00  0.00     0.023 A 
ATOM     10  C   UNL     1     142.920  96.263 132.323  1.00  0.00     0.041 A 
ATOM     11  Cl  UNL     1     143.823  95.599 131.019  1.00  0.00    -0.084 Cl
ATOM     12  C   UNL     1     141.684  96.856 132.078  1.00  0.00     0.033 A 
ATOM     13  C   UNL     1     140.931  97.392 133.139  1.00  0.00     0.026 A 
ATOM     14  C   UNL     1     139.560  97.903 132.808  1.00  0.00     0.075 C 
ATOM     15  N   UNL     1     139.065  99.015 133.235  1.00  0.00    -0.276 NA
ATOM     16  C   UNL     1     139.826  99.860 134.144  1.00  0.00     0.220 C 
ENDROOT
BRANCH  14  17
ATOM     17  C   UNL     1     138.685  97.072 131.917  1.00  0.00     0.000 A 
ATOM     18  C   UNL     1     138.216  97.626 130.719  1.00  0.00     0.010 A 
ATOM     19  C   UNL     1     138.307  95.773 132.277  1.00  0.00     0.010 A 
ATOM     20  C   UNL     1     137.400  96.874 129.874  1.00  0.00     0.001 A 
ATOM     21  C   UNL     1     137.489  95.025 131.426  1.00  0.00     0.001 A 
ATOM     22  C   UNL     1     137.041  95.573 130.225  1.00  0.00     0.000 A 
ENDBRANCH  14  17
TORSDOF 1
ENDMDL
MODEL 4
REMARK VINA RESULT:    -7.341      3.239      4.757
REMARK INTER + INTRA:          -7.440
REMARK INTER:                  -7.102
REMARK INTRA:                  -0.337
REMARK UNBOUND:                 0.331
REMARK SMILES Cc1nnc2n1-c1ccc(Cl)cc1C(c1ccccc1)=NC2
REMARK SMILES IDX 1 1 2 2 3 3 4 4 5 5 6 6 7 7 8 8 9 9 10 10 11 11 12 12 13 13
REMARK SMILES IDX 14 14 21 15 22 16 15 17 16 18 20 19 17 20 19 21 18 22
REMARK H PARENT
ROOT
ATOM      1  C   UNL     1     143.565  99.051 132.642  1.00  0.00     0.090 C 
ATOM      2  C   UNL     1     142.262  98.718 133.264  1.00  0.00     0.134 A 
ATOM      3  N   UNL     1     141.186  99.475 133.178  1.00  0.00    -0.135 NA
ATOM      4  N   UNL     1     140.220  98.943 133.985  1.00  0.00    -0.133 NA
ATOM      5  C   UNL     1     140.716  97.865 134.553  1.00  0.00     0.159 A 
ATOM      6  N   UNL     1     141.999  97.645 134.102  1.00  0.00    -0.281 N 
ATOM      7  C   UNL     1     142.787  96.502 134.397  1.00  0.00     0.058 A 
ATOM      8  C   UNL     1     143.627  95.973 133.403  1.00  0.00     0.029 A 
ATOM      9  C   UNL     1     144.342  94.794 133.633  1.00  0.00     0.023 A 
ATOM     10  C   UNL     1     144.213  94.130 134.848  1.00  0.00     0.041 A 
ATOM     11  Cl  UNL     1     145.080  92.671 135.120  1.00  0.00    -0.084 Cl
ATOM     12  C   UNL     1     143.388  94.642 135.845  1.00  0.00     0.033 A 
ATOM     13  C   UNL     1     142.684  95.843 135.638  1.00  0.00     0.026 A 
ATOM     14  C   UNL     1     141.914  96.388 136.804  1.00  0.00     0.075 C 
ATOM     15  N   UNL     1     140.714  96.857 136.741  1.00  0.00    -0.276 NA
ATOM     16  C   UNL     1     140.018  96.931 135.465  1.00  0.00     0.220 C 
ENDROOT
BRANCH  14  17
ATOM     17  C   UNL     1     142.573  96.398 138.152  1.00  0.00     0.000 A 
ATOM     18  C   UNL     1     141.820  96.045 139.278  1.00  0.00     0.010 A 
ATOM     19  C   UNL     1     143.911  96.784 138.303  1.00  0.00     0.010 A 
ATOM     20  C   UNL     1     142.410  96.048 140.543  1.00  0.00     0.001 A 
ATOM     21  C   UNL     1     144.496  96.784 139.572  1.00  0.00     0.001 A 
ATOM     22  C   UNL     1     143.747  96.413 140.688  1.00  0.00     0.000 A 
ENDBRANCH  14  17
TORSDOF 1
ENDMDL
MODEL 5
REMARK VINA RESULT:    -7.220      1.804      2.510
REMARK INTER + INTRA:          -7.311
REMARK INTER:                  -6.953
REMARK INTRA:                  -0.359
REMARK UNBOUND:                 0.331
REMARK SMILES Cc1nnc2n1-c1ccc(Cl)cc1C(c1ccccc1)=NC2
REMARK SMILES IDX 1 1 2 2 3 3 4 4 5 5 6 6 7 7 8 8 9 9 10 10 11 11 12 12 13 13
REMARK SMILES IDX 14 14 21 15 22 16 15 17 16 18 20 19 17 20 19 21 18 22
REMARK H PARENT
ROOT
ATOM      1  C   UNL     1     138.329  95.459 130.863  1.00  0.00     0.090 C 
ATOM      2  C   UNL     1     139.778  95.727 130.707  1.00  0.00     0.134 A 
ATOM      3  N   UNL     1     140.565  95.082 129.869  1.00  0.00    -0.135 NA
ATOM      4  N   UNL     1     141.852  95.480 130.094  1.00  0.00    -0.133 NA
ATOM      5  C   UNL     1     141.837  96.368 131.064  1.00  0.00     0.159 A 
ATOM      6  N   UNL     1     140.541  96.599 131.470  1.00  0.00    -0.281 N 
ATOM      7  C   UNL     1     140.137  97.591 132.400  1.00  0.00     0.058 A 
ATOM      8  C   UNL     1     138.928  98.275 132.192  1.00  0.00     0.029 A 
ATOM      9  C   UNL     1     138.551  99.322 133.038  1.00  0.00     0.023 A 
ATOM     10  C   UNL     1     139.383  99.702 134.085  1.00  0.00     0.041 A 
ATOM     11  Cl  UNL     1     138.925 101.002 135.112  1.00  0.00    -0.084 Cl
ATOM     12  C   UNL     1     140.583  99.033 134.308  1.00  0.00     0.033 A 
ATOM     13  C   UNL     1     140.963  97.959 133.482  1.00  0.00     0.026 A 
ATOM     14  C   UNL     1     142.209  97.216 133.862  1.00  0.00     0.075 C 
ATOM     15  N   UNL     1     143.132  96.853 133.038  1.00  0.00    -0.276 NA
ATOM     16  C   UNL     1     142.992  97.115 131.613  1.00  0.00     0.220 C 
ENDROOT
BRANCH  14  17
ATOM     17  C   UNL     1     142.414  96.860 135.305  1.00  0.00     0.000 A 
ATOM     18  C   UNL     1     141.897  95.650 135.785  1.00  0.00     0.010 A 
ATOM     19  C   UNL     1     143.081  97.727 136.180  1.00  0.00     0.010 A 
ATOM     20  C   UNL     1     142.073  95.297 137.123  1.00  0.00     0.001 A 
ATOM     21  C   UNL     1     143.254  97.367 137.519  1.00  0.00     0.001 A 
ATOM     22  C   UNL     1     142.755  96.152 137.988  1.00  0.00     0.000 A 
ENDBRANCH  14  17
TORSDOF 1
ENDMDL
MODEL 6
REMARK VINA RESULT:    -7.089      3.132      4.475
REMARK INTER + INTRA:          -7.173
REMARK INTER:                  -6.779
REMARK INTRA:                  -0.394
REMARK UNBOUND:                 0.331
REMARK SMILES Cc1nnc2n1-c1ccc(Cl)cc1C(c1ccccc1)=NC2
REMARK SMILES IDX 1 1 2 2 3 3 4 4 5 5 6 6 7 7 8 8 9 9 10 10 11 11 12 12 13 13
REMARK SMILES IDX 14 14 21 15 22 16 15 17 16 18 20 19 17 20 19 21 18 22
REMARK H PARENT
ROOT
ATOM      1  C   UNL     1     140.800  99.930 132.326  1.00  0.00     0.090 C 
ATOM      2  C   UNL     1     140.129  98.665 132.708  1.00  0.00     0.134 A 
ATOM      3  N   UNL     1     138.822  98.493 132.715  1.00  0.00    -0.135 NA
ATOM      4  N   UNL     1     138.552  97.268 133.256  1.00  0.00    -0.133 NA
ATOM      5  C   UNL     1     139.697  96.703 133.569  1.00  0.00     0.159 A 
ATOM      6  N   UNL     1     140.742  97.525 133.207  1.00  0.00    -0.281 N 
ATOM      7  C   UNL     1     142.117  97.181 133.270  1.00  0.00     0.058 A 
ATOM      8  C   UNL     1     142.985  97.631 132.261  1.00  0.00     0.029 A 
ATOM      9  C   UNL     1     144.323  97.230 132.247  1.00  0.00     0.023 A 
ATOM     10  C   UNL     1     144.800  96.368 133.227  1.00  0.00     0.041 A 
ATOM     11  Cl  UNL     1     146.443  95.862 133.195  1.00  0.00    -0.084 Cl
ATOM     12  C   UNL     1     143.956  95.915 134.237  1.00  0.00     0.033 A 
ATOM     13  C   UNL     1     142.612  96.332 134.281  1.00  0.00     0.026 A 
ATOM     14  C   UNL     1     141.804  95.896 135.466  1.00  0.00     0.075 C 
ATOM     15  N   UNL     1     140.600  95.435 135.409  1.00  0.00    -0.276 NA
ATOM     16  C   UNL     1     139.904  95.350 134.133  1.00  0.00     0.220 C 
ENDROOT
BRANCH  14  17
ATOM     17  C   UNL     1     142.424  95.996 136.828  1.00  0.00     0.000 A 
ATOM     18  C   UNL     1     142.327  94.905 137.701  1.00  0.00     0.010 A 
ATOM     19  C   UNL     1     143.066  97.168 137.250  1.00  0.00     0.010 A 
ATOM     20  C   UNL     1     142.894  94.975 138.974  1.00  0.00     0.001 A 
ATOM     21  C   UNL     1     143.633  97.231 138.525  1.00  0.00     0.001 A 
ATOM     22  C   UNL     1     143.550  96.135 139.383  1.00  0.00     0.000 A 
ENDBRANCH  14  17
TORSDOF 1
ENDMDL
MODEL 7
REMARK VINA RESULT:    -7.026      3.853      4.950
REMARK INTER + INTRA:          -7.106
REMARK INTER:                  -6.639
REMARK INTRA:                  -0.468
REMARK UNBOUND:                 0.331
REMARK SMILES Cc1nnc2n1-c1ccc(Cl)cc1C(c1ccccc1)=NC2
REMARK SMILES IDX 1 1 2 2 3 3 4 4 5 5 6 6 7 7 8 8 9 9 10 10 11 11 12 12 13 13
REMARK SMILES IDX 14 14 21 15 22 16 15 17 16 18 20 19 17 20 19 21 18 22
REMARK H PARENT
ROOT
ATOM      1  C   UNL     1     144.449  92.365 134.055  1.00  0.00     0.090 C 
ATOM      2  C   UNL     1     145.531  92.965 134.870  1.00  0.00     0.134 A 
ATOM      3  N   UNL     1     146.720  92.422 135.036  1.00  0.00    -0.135 NA
ATOM      4  N   UNL     1     147.406  93.161 135.958  1.00  0.00    -0.133 NA
ATOM      5  C   UNL     1     146.629  94.151 136.342  1.00  0.00     0.159 A 
ATOM      6  N   UNL     1     145.436  94.105 135.654  1.00  0.00    -0.281 N 
ATOM      7  C   UNL     1     144.417  95.090 135.714  1.00  0.00     0.058 A 
ATOM      8  C   UNL     1     143.700  95.407 134.548  1.00  0.00     0.029 A 
ATOM      9  C   UNL     1     142.757  96.439 134.554  1.00  0.00     0.023 A 
ATOM     10  C   UNL     1     142.534  97.169 135.716  1.00  0.00     0.041 A 
ATOM     11  Cl  UNL     1     141.387  98.449 135.715  1.00  0.00    -0.084 Cl
ATOM     12  C   UNL     1     143.233  96.866 136.882  1.00  0.00     0.033 A 
ATOM     13  C   UNL     1     144.165  95.812 136.898  1.00  0.00     0.026 A 
ATOM     14  C   UNL     1     144.785  95.474 138.221  1.00  0.00     0.075 C 
ATOM     15  N   UNL     1     146.038  95.237 138.410  1.00  0.00    -0.276 NA
ATOM     16  C   UNL     1     146.965  95.239 137.288  1.00  0.00     0.220 C 
ENDROOT
BRANCH  14  17
ATOM     17  C   UNL     1     143.895  95.400 139.427  1.00  0.00     0.000 A 
ATOM     18  C   UNL     1     143.916  96.451 140.352  1.00  0.00     0.010 A 
ATOM     19  C   UNL     1     143.074  94.288 139.657  1.00  0.00     0.010 A 
ATOM     20  C   UNL     1     143.099  96.405 141.482  1.00  0.00     0.001 A 
ATOM     21  C   UNL     1     142.258  94.248 140.790  1.00  0.00     0.001 A 
ATOM     22  C   UNL     1     142.268  95.307 141.698  1.00  0.00     0.000 A 
ENDBRANCH  14  17
TORSDOF 1
ENDMDL
MODEL 8
REMARK VINA RESULT:    -6.991      2.825      3.757
REMARK INTER + INTRA:          -7.069
REMARK INTER:                  -6.646
REMARK INTRA:                  -0.423
REMARK UNBOUND:                 0.331
REMARK SMILES Cc1nnc2n1-c1ccc(Cl)cc1C(c1ccccc1)=NC2
REMARK SMILES IDX 1 1 2 2 3 3 4 4 5 5 6 6 7 7 8 8 9 9 10 10 11 11 12 12 13 13
REMARK SMILES IDX 14 14 21 15 22 16 15 17 16 18 20 19 17 20 19 21 18 22
REMARK H PARENT
ROOT
ATOM      1  C   UNL     1     141.141  93.757 133.666  1.00  0.00     0.090 C 
ATOM      2  C   UNL     1     142.505  94.233 133.992  1.00  0.00     0.134 A 
ATOM      3  N   UNL     1     143.609  93.715 133.492  1.00  0.00    -0.135 NA
ATOM      4  N   UNL     1     144.678  94.292 134.118  1.00  0.00    -0.133 NA
ATOM      5  C   UNL     1     144.214  95.161 134.990  1.00  0.00     0.159 A 
ATOM      6  N   UNL     1     142.839  95.199 134.929  1.00  0.00    -0.281 N 
ATOM      7  C   UNL     1     142.012  96.116 135.629  1.00  0.00     0.058 A 
ATOM      8  C   UNL     1     140.860  96.620 135.001  1.00  0.00     0.029 A 
ATOM      9  C   UNL     1     140.080  97.595 135.629  1.00  0.00     0.023 A 
ATOM     10  C   UNL     1     140.450  98.082 136.878  1.00  0.00     0.041 A 
ATOM     11  Cl  UNL     1     139.498  99.295 137.638  1.00  0.00    -0.084 Cl
ATOM     12  C   UNL     1     141.586  97.592 137.516  1.00  0.00     0.033 A 
ATOM     13  C   UNL     1     142.366  96.590 136.909  1.00  0.00     0.026 A 
ATOM     14  C   UNL     1     143.501  96.032 137.714  1.00  0.00     0.075 C 
ATOM     15  N   UNL     1     144.689  95.812 137.261  1.00  0.00    -0.276 NA
ATOM     16  C   UNL     1     145.001  96.062 135.862  1.00  0.00     0.220 C 
ENDROOT
BRANCH  14  17
ATOM     17  C   UNL     1     143.256  95.697 139.156  1.00  0.00     0.000 A 
ATOM     18  C   UNL     1     143.655  96.608 140.142  1.00  0.00     0.010 A 
ATOM     19  C   UNL     1     142.667  94.482 139.529  1.00  0.00     0.010 A 
ATOM     20  C   UNL     1     143.440  96.318 141.489  1.00  0.00     0.001 A 
ATOM     21  C   UNL     1     142.454  94.199 140.880  1.00  0.00     0.001 A 
ATOM     22  C   UNL     1     142.835  95.117 141.858  1.00  0.00     0.000 A 
ENDBRANCH  14  17
TORSDOF 1
ENDMDL
MODEL 9
REMARK VINA RESULT:    -6.660      3.232      5.218
REMARK INTER + INTRA:          -6.718
REMARK INTER:                  -6.217
REMARK INTRA:                  -0.501
REMARK UNBOUND:                 0.331
REMARK SMILES Cc1nnc2n1-c1ccc(Cl)cc1C(c1ccccc1)=NC2
REMARK SMILES IDX 1 1 2 2 3 3 4 4 5 5 6 6 7 7 8 8 9 9 10 10 11 11 12 12 13 13
REMARK SMILES IDX 14 14 21 15 22 16 15 17 16 18 20 19 17 20 19 21 18 22
REMARK H PARENT
ROOT
ATOM      1  C   UNL     1     139.468  99.715 133.027  1.00  0.00     0.090 C 
ATOM      2  C   UNL     1     139.753  99.173 134.377  1.00  0.00     0.134 A 
ATOM      3  N   UNL     1     139.685  99.880 135.487  1.00  0.00    -0.135 NA
ATOM      4  N   UNL     1     140.151  99.111 136.516  1.00  0.00    -0.133 NA
ATOM      5  C   UNL     1     140.494  97.941 136.023  1.00  0.00     0.159 A 
ATOM      6  N   UNL     1     140.226  97.904 134.672  1.00  0.00    -0.281 N 
ATOM      7  C   UNL     1     140.342  96.757 133.844  1.00  0.00     0.058 A 
ATOM      8  C   UNL     1     139.402  96.551 132.821  1.00  0.00     0.029 A 
ATOM      9  C   UNL     1     139.436  95.385 132.051  1.00  0.00     0.023 A 
ATOM     10  C   UNL     1     140.396  94.412 132.307  1.00  0.00     0.041 A 
ATOM     11  Cl  UNL     1     140.422  92.970 131.371  1.00  0.00    -0.084 Cl
ATOM     12  C   UNL     1     141.338  94.601 133.314  1.00  0.00     0.033 A 
ATOM     13  C   UNL     1     141.334  95.783 134.079  1.00  0.00     0.026 A 
ATOM     14  C   UNL     1     142.453  95.961 135.060  1.00  0.00     0.075 C 
ATOM     15  N   UNL     1     142.313  96.380 136.272  1.00  0.00    -0.276 NA
ATOM     16  C   UNL     1     141.001  96.767 136.770  1.00  0.00     0.220 C 
ENDROOT
BRANCH  14  17
ATOM     17  C   UNL     1     143.849  95.633 134.617  1.00  0.00     0.000 A 
ATOM     18  C   UNL     1     144.527  94.576 135.237  1.00  0.00     0.010 A 
ATOM     19  C   UNL     1     144.491  96.384 133.624  1.00  0.00     0.010 A 
ATOM     20  C   UNL     1     145.826  94.253 134.844  1.00  0.00     0.001 A 
ATOM     21  C   UNL     1     145.791  96.054 133.234  1.00  0.00     0.001 A 
ATOM     22  C   UNL     1     146.455  94.988 133.840  1.00  0.00     0.000 A 
ENDBRANCH  14  17
TORSDOF 1
ENDMDL
