MODEL 1
REMARK VINA RESULT:   -10.124      0.000      0.000
REMARK INTER + INTRA:         -10.453
REMARK INTER:                 -10.716
REMARK INTRA:                   0.263
REMARK UNBOUND:                 0.263
REMARK SMILES CN1C(=O)CN=C(c2ccccc2)c2cc(Cl)ccc21
REMARK SMILES IDX 1 1 2 2 3 3 4 4 5 5 6 6 7 7 14 8 15 9 16 10 17 11 18 12
REMARK SMILES IDX 19 13 20 14 8 15 9 16 13 17 10 18 12 19 11 20
REMARK H PARENT
ROOT
ATOM      1  C   UNL     1     116.927 160.680 111.940  1.00  0.00     0.153 C 
ATOM      2  N   UNL     1     117.620 159.432 111.648  1.00  0.00    -0.313 N 
ATOM      3  C   UNL     1     117.336 158.343 112.481  1.00  0.00     0.248 C 
ATOM      4  O   UNL     1     116.490 158.400 113.378  1.00  0.00    -0.272 OA
ATOM      5  C   UNL     1     118.184 157.092 112.298  1.00  0.00     0.243 C 
ATOM      6  N   UNL     1     117.796 156.430 111.058  1.00  0.00    -0.274 NA
ATOM      7  C   UNL     1     118.108 157.003 109.944  1.00  0.00     0.075 C 
ATOM      8  C   UNL     1     118.902 158.263 109.844  1.00  0.00     0.026 A 
ATOM      9  C   UNL     1     119.943 158.286 108.895  1.00  0.00     0.033 A 
ATOM     10  C   UNL     1     120.650 159.459 108.661  1.00  0.00     0.041 A 
ATOM     11  Cl  UNL     1     121.907 159.483 107.489  1.00  0.00    -0.084 Cl
ATOM     12  C   UNL     1     120.336 160.614 109.363  1.00  0.00     0.023 A 
ATOM     13  C   UNL     1     119.321 160.588 110.326  1.00  0.00     0.028 A 
ATOM     14  C   UNL     1     118.603 159.410 110.609  1.00  0.00     0.053 A 
ENDROOT
BRANCH   7  15
ATOM     15  C   UNL     1     117.643 156.342 108.681  1.00  0.00     0.000 A 
ATOM     16  C   UNL     1     116.338 155.841 108.618  1.00  0.00     0.010 A 
ATOM     17  C   UNL     1     118.477 156.248 107.561  1.00  0.00     0.010 A 
ATOM     18  C   UNL     1     115.880 155.223 107.454  1.00  0.00     0.001 A 
ATOM     19  C   UNL     1     118.016 155.628 106.398  1.00  0.00     0.001 A 
ATOM     20  C   UNL     1     116.721 155.112 106.346  1.00  0.00     0.000 A 
ENDBRANCH   7  15
TORSDOF 1
ENDMDL
MODEL 2
REMARK VINA RESULT:    -9.433      3.010      5.965
REMARK INTER + INTRA:          -9.721
REMARK INTER:                  -9.985
REMARK INTRA:                   0.263
REMARK UNBOUND:                 0.263
REMARK SMILES CN1C(=O)CN=C(c2ccccc2)c2cc(Cl)ccc21
REMARK SMILES IDX 1 1 2 2 3 3 4 4 5 5 6 6 7 7 14 8 15 9 16 10 17 11 18 12
REMARK SMILES IDX 19 13 20 14 8 15 9 16 13 17 10 18 12 19 11 20
REMARK H PARENT
ROOT
ATOM      1  C   UNL     1     117.815 157.030 106.765  1.00  0.00     0.153 C 
ATOM      2  N   UNL     1     118.550 157.601 107.886  1.00  0.00    -0.313 N 
ATOM      3  C   UNL     1     119.565 158.514 107.577  1.00  0.00     0.248 C 
ATOM      4  O   UNL     1     119.793 158.883 106.421  1.00  0.00    -0.272 OA
ATOM      5  C   UNL     1     120.453 158.976 108.724  1.00  0.00     0.243 C 
ATOM      6  N   UNL     1     119.696 159.886 109.576  1.00  0.00    -0.274 NA
ATOM      7  C   UNL     1     118.746 159.390 110.296  1.00  0.00     0.075 C 
ATOM      8  C   UNL     1     118.419 157.935 110.363  1.00  0.00     0.026 A 
ATOM      9  C   UNL     1     118.205 157.390 111.644  1.00  0.00     0.033 A 
ATOM     10  C   UNL     1     117.783 156.074 111.783  1.00  0.00     0.041 A 
ATOM     11  Cl  UNL     1     117.508 155.422 113.349  1.00  0.00    -0.084 Cl
ATOM     12  C   UNL     1     117.572 155.287 110.659  1.00  0.00     0.023 A 
ATOM     13  C   UNL     1     117.810 155.817 109.386  1.00  0.00     0.028 A 
ATOM     14  C   UNL     1     118.265 157.138 109.210  1.00  0.00     0.053 A 
ENDROOT
BRANCH   7  15
ATOM     15  C   UNL     1     117.935 160.350 111.114  1.00  0.00     0.000 A 
ATOM     16  C   UNL     1     118.124 161.725 110.933  1.00  0.00     0.010 A 
ATOM     17  C   UNL     1     116.977 159.895 112.028  1.00  0.00     0.010 A 
ATOM     18  C   UNL     1     117.382 162.639 111.682  1.00  0.00     0.001 A 
ATOM     19  C   UNL     1     116.236 160.813 112.776  1.00  0.00     0.001 A 
ATOM     20  C   UNL     1     116.441 162.182 112.606  1.00  0.00     0.000 A 
ENDBRANCH   7  15
TORSDOF 1
ENDMDL
MODEL 3
REMARK VINA RESULT:    -9.246      2.549      3.352
REMARK INTER + INTRA:          -9.523
REMARK INTER:                  -9.047
REMARK INTRA:                  -0.477
REMARK UNBOUND:                 0.263
REMARK SMILES CN1C(=O)CN=C(c2ccccc2)c2cc(Cl)ccc21
REMARK SMILES IDX 1 1 2 2 3 3 4 4 5 5 6 6 7 7 14 8 15 9 16 10 17 11 18 12
REMARK SMILES IDX 19 13 20 14 8 15 9 16 13 17 10 18 12 19 11 20
REMARK H PARENT
ROOT
ATOM      1  C   UNL     1     114.509 156.830 114.607  1.00  0.00     0.153 C 
ATOM      2  N   UNL     1     115.755 156.574 113.895  1.00  0.00    -0.313 N 
ATOM      3  C   UNL     1     116.364 155.333 114.116  1.00  0.00     0.248 C 
ATOM      4  O   UNL     1     115.849 154.459 114.819  1.00  0.00    -0.272 OA
ATOM      5  C   UNL     1     117.750 155.127 113.522  1.00  0.00     0.243 C 
ATOM      6  N   UNL     1     117.631 154.975 112.076  1.00  0.00    -0.274 NA
ATOM      7  C   UNL     1     117.310 156.015 111.383  1.00  0.00     0.075 C 
ATOM      8  C   UNL     1     117.121 157.379 111.959  1.00  0.00     0.026 A 
ATOM      9  C   UNL     1     117.726 158.449 111.272  1.00  0.00     0.033 A 
ATOM     10  C   UNL     1     117.499 159.758 111.678  1.00  0.00     0.041 A 
ATOM     11  Cl  UNL     1     118.228 161.060 110.823  1.00  0.00    -0.084 Cl
ATOM     12  C   UNL     1     116.677 160.019 112.765  1.00  0.00     0.023 A 
ATOM     13  C   UNL     1     116.096 158.957 113.467  1.00  0.00     0.028 A 
ATOM     14  C   UNL     1     116.327 157.617 113.100  1.00  0.00     0.053 A 
ENDROOT
BRANCH   7  15
ATOM     15  C   UNL     1     117.127 155.824 109.907  1.00  0.00     0.000 A 
ATOM     16  C   UNL     1     115.852 155.992 109.354  1.00  0.00     0.010 A 
ATOM     17  C   UNL     1     118.209 155.514 109.075  1.00  0.00     0.010 A 
ATOM     18  C   UNL     1     115.655 155.820 107.983  1.00  0.00     0.001 A 
ATOM     19  C   UNL     1     118.008 155.343 107.704  1.00  0.00     0.001 A 
ATOM     20  C   UNL     1     116.733 155.491 107.159  1.00  0.00     0.000 A 
ENDBRANCH   7  15
TORSDOF 1
ENDMDL
MODEL 4
REMARK VINA RESULT:    -8.813      1.845      4.704
REMARK INTER + INTRA:          -9.066
REMARK INTER:                  -8.978
REMARK INTRA:                  -0.088
REMARK UNBOUND:                 0.263
REMARK SMILES CN1C(=O)CN=C(c2ccccc2)c2cc(Cl)ccc21
REMARK SMILES IDX 1 1 2 2 3 3 4 4 5 5 6 6 7 7 14 8 15 9 16 10 17 11 18 12
REMARK SMILES IDX 19 13 20 14 8 15 9 16 13 17 10 18 12 19 11 20
REMARK H PARENT
ROOT
ATOM      1  C   UNL     1     118.046 155.991 113.499  1.00  0.00     0.153 C 
ATOM      2  N   UNL     1     117.620 157.083 112.634  1.00  0.00    -0.313 N 
ATOM      3  C   UNL     1     117.123 158.231 113.265  1.00  0.00     0.248 C 
ATOM      4  O   UNL     1     117.106 158.355 114.493  1.00  0.00    -0.272 OA
ATOM      5  C   UNL     1     116.511 159.301 112.373  1.00  0.00     0.243 C 
ATOM      6  N   UNL     1     117.577 159.985 111.649  1.00  0.00    -0.274 NA
ATOM      7  C   UNL     1     118.193 159.332 110.721  1.00  0.00     0.075 C 
ATOM      8  C   UNL     1     117.836 157.946 110.295  1.00  0.00     0.026 A 
ATOM      9  C   UNL     1     117.760 157.707 108.909  1.00  0.00     0.033 A 
ATOM     10  C   UNL     1     117.550 156.419 108.433  1.00  0.00     0.041 A 
ATOM     11  Cl  UNL     1     117.475 156.132 106.739  1.00  0.00    -0.084 Cl
ATOM     12  C   UNL     1     117.411 155.361 109.320  1.00  0.00     0.023 A 
ATOM     13  C   UNL     1     117.459 155.599 110.698  1.00  0.00     0.028 A 
ATOM     14  C   UNL     1     117.643 156.896 111.216  1.00  0.00     0.053 A 
ENDROOT
BRANCH   7  15
ATOM     15  C   UNL     1     119.329 160.028 110.034  1.00  0.00     0.000 A 
ATOM     16  C   UNL     1     119.400 161.425 110.083  1.00  0.00     0.010 A 
ATOM     17  C   UNL     1     120.331 159.305 109.375  1.00  0.00     0.010 A 
ATOM     18  C   UNL     1     120.447 162.096 109.452  1.00  0.00     0.001 A 
ATOM     19  C   UNL     1     121.378 159.981 108.745  1.00  0.00     0.001 A 
ATOM     20  C   UNL     1     121.434 161.374 108.779  1.00  0.00     0.000 A 
ENDBRANCH   7  15
TORSDOF 1
ENDMDL
MODEL 5
REMARK VINA RESULT:    -7.847      3.339      5.005
REMARK INTER + INTRA:          -8.043
REMARK INTER:                  -7.755
REMARK INTRA:                  -0.288
REMARK UNBOUND:                 0.263
REMARK SMILES CN1C(=O)CN=C(c2ccccc2)c2cc(Cl)ccc21
REMARK SMILES IDX 1 1 2 2 3 3 4 4 5 5 6 6 7 7 14 8 15 9 16 10 17 11 18 12
REMARK SMILES IDX 19 13 20 14 8 15 9 16 13 17 10 18 12 19 11 20
REMARK H PARENT
ROOT
ATOM      1  C   UNL     1     113.246 157.091 115.375  1.00  0.00     0.153 C 
ATOM      2  N   UNL     1     114.663 157.284 115.093  1.00  0.00    -0.313 N 
ATOM      3  C   UNL     1     115.546 156.329 115.613  1.00  0.00     0.248 C 
ATOM      4  O   UNL     1     115.154 155.329 116.222  1.00  0.00    -0.272 OA
ATOM      5  C   UNL     1     117.034 156.617 115.479  1.00  0.00     0.243 C 
ATOM      6  N   UNL     1     117.431 156.436 114.087  1.00  0.00    -0.274 NA
ATOM      7  C   UNL     1     117.019 157.303 113.224  1.00  0.00     0.075 C 
ATOM      8  C   UNL     1     116.221 158.516 113.571  1.00  0.00     0.026 A 
ATOM      9  C   UNL     1     116.623 159.731 112.983  1.00  0.00     0.033 A 
ATOM     10  C   UNL     1     115.863 160.880 113.163  1.00  0.00     0.041 A 
ATOM     11  Cl  UNL     1     116.351 162.355 112.428  1.00  0.00    -0.084 Cl
ATOM     12  C   UNL     1     114.705 160.838 113.926  1.00  0.00     0.023 A 
ATOM     13  C   UNL     1     114.317 159.639 114.534  1.00  0.00     0.028 A 
ATOM     14  C   UNL     1     115.079 158.462 114.395  1.00  0.00     0.053 A 
ENDROOT
BRANCH   7  15
ATOM     15  C   UNL     1     117.380 157.064 111.789  1.00  0.00     0.000 A 
ATOM     16  C   UNL     1     118.567 157.611 111.287  1.00  0.00     0.010 A 
ATOM     17  C   UNL     1     116.570 156.282 110.956  1.00  0.00     0.010 A 
ATOM     18  C   UNL     1     118.926 157.403 109.954  1.00  0.00     0.001 A 
ATOM     19  C   UNL     1     116.933 156.076 109.623  1.00  0.00     0.001 A 
ATOM     20  C   UNL     1     118.106 156.640 109.122  1.00  0.00     0.000 A 
ENDBRANCH   7  15
TORSDOF 1
ENDMDL
MODEL 6
REMARK VINA RESULT:    -6.717      5.133      7.245
REMARK INTER + INTRA:          -6.847
REMARK INTER:                  -6.651
REMARK INTRA:                  -0.196
REMARK UNBOUND:                 0.263
REMARK SMILES CN1C(=O)CN=C(c2ccccc2)c2cc(Cl)ccc21
REMARK SMILES IDX 1 1 2 2 3 3 4 4 5 5 6 6 7 7 14 8 15 9 16 10 17 11 18 12
REMARK SMILES IDX 19 13 20 14 8 15 9 16 13 17 10 18 12 19 11 20
REMARK H PARENT
ROOT
ATOM      1  C   UNL     1     113.589 160.171 115.742  1.00  0.00     0.153 C 
ATOM      2  N   UNL     1     114.817 159.518 116.176  1.00  0.00    -0.313 N 
ATOM      3  C   UNL     1     115.143 159.625 117.534  1.00  0.00     0.248 C 
ATOM      4  O   UNL     1     114.403 160.182 118.349  1.00  0.00    -0.272 OA
ATOM      5  C   UNL     1     116.508 159.105 117.961  1.00  0.00     0.243 C 
ATOM      6  N   UNL     1     116.492 157.646 117.932  1.00  0.00    -0.274 NA
ATOM      7  C   UNL     1     116.449 157.065 116.781  1.00  0.00     0.075 C 
ATOM      8  C   UNL     1     116.485 157.789 115.475  1.00  0.00     0.026 A 
ATOM      9  C   UNL     1     117.352 157.278 114.489  1.00  0.00     0.033 A 
ATOM     10  C   UNL     1     117.356 157.825 113.212  1.00  0.00     0.041 A 
ATOM     11  Cl  UNL     1     118.404 157.185 112.009  1.00  0.00    -0.084 Cl
ATOM     12  C   UNL     1     116.508 158.879 112.901  1.00  0.00     0.023 A 
ATOM     13  C   UNL     1     115.666 159.406 113.886  1.00  0.00     0.028 A 
ATOM     14  C   UNL     1     115.655 158.895 115.199  1.00  0.00     0.053 A 
ENDROOT
BRANCH   7  15
ATOM     15  C   UNL     1     116.365 155.568 116.772  1.00  0.00     0.000 A 
ATOM     16  C   UNL     1     116.938 154.850 117.828  1.00  0.00     0.010 A 
ATOM     17  C   UNL     1     115.699 154.883 115.749  1.00  0.00     0.010 A 
ATOM     18  C   UNL     1     116.873 153.456 117.844  1.00  0.00     0.001 A 
ATOM     19  C   UNL     1     115.636 153.489 115.768  1.00  0.00     0.001 A 
ATOM     20  C   UNL     1     116.226 152.776 116.812  1.00  0.00     0.000 A 
ENDBRANCH   7  15
TORSDOF 1
ENDMDL
MODEL 7
REMARK VINA RESULT:    -6.643      5.080      7.178
REMARK INTER + INTRA:          -6.769
REMARK INTER:                  -6.305
REMARK INTRA:                  -0.464
REMARK UNBOUND:                 0.263
REMARK SMILES CN1C(=O)CN=C(c2ccccc2)c2cc(Cl)ccc21
REMARK SMILES IDX 1 1 2 2 3 3 4 4 5 5 6 6 7 7 14 8 15 9 16 10 17 11 18 12
REMARK SMILES IDX 19 13 20 14 8 15 9 16 13 17 10 18 12 19 11 20
REMARK H PARENT
ROOT
ATOM      1  C   UNL     1     113.958 157.357 118.806  1.00  0.00     0.153 C 
ATOM      2  N   UNL     1     114.925 157.979 117.910  1.00  0.00    -0.313 N 
ATOM      3  C   UNL     1     116.276 157.869 118.264  1.00  0.00     0.248 C 
ATOM      4  O   UNL     1     116.651 157.221 119.246  1.00  0.00    -0.272 OA
ATOM      5  C   UNL     1     117.275 158.665 117.437  1.00  0.00     0.243 C 
ATOM      6  N   UNL     1     117.418 158.037 116.128  1.00  0.00    -0.274 NA
ATOM      7  C   UNL     1     116.425 158.118 115.307  1.00  0.00     0.075 C 
ATOM      8  C   UNL     1     115.168 158.874 115.586  1.00  0.00     0.026 A 
ATOM      9  C   UNL     1     114.683 159.702 114.555  1.00  0.00     0.033 A 
ATOM     10  C   UNL     1     113.460 160.346 114.693  1.00  0.00     0.041 A 
ATOM     11  Cl  UNL     1     112.866 161.341 113.424  1.00  0.00    -0.084 Cl
ATOM     12  C   UNL     1     112.710 160.178 115.849  1.00  0.00     0.023 A 
ATOM     13  C   UNL     1     113.201 159.377 116.885  1.00  0.00     0.028 A 
ATOM     14  C   UNL     1     114.450 158.732 116.791  1.00  0.00     0.053 A 
ENDROOT
BRANCH   7  15
ATOM     15  C   UNL     1     116.565 157.409 113.994  1.00  0.00     0.000 A 
ATOM     16  C   UNL     1     117.627 157.748 113.148  1.00  0.00     0.010 A 
ATOM     17  C   UNL     1     115.672 156.399 113.615  1.00  0.00     0.010 A 
ATOM     18  C   UNL     1     117.780 157.103 111.920  1.00  0.00     0.001 A 
ATOM     19  C   UNL     1     115.828 155.756 112.386  1.00  0.00     0.001 A 
ATOM     20  C   UNL     1     116.877 156.111 111.538  1.00  0.00     0.000 A 
ENDBRANCH   7  15
TORSDOF 1
ENDMDL
MODEL 8
REMARK VINA RESULT:    -6.603      4.729      7.072
REMARK INTER + INTRA:          -6.726
REMARK INTER:                  -6.376
REMARK INTRA:                  -0.350
REMARK UNBOUND:                 0.263
REMARK SMILES CN1C(=O)CN=C(c2ccccc2)c2cc(Cl)ccc21
REMARK SMILES IDX 1 1 2 2 3 3 4 4 5 5 6 6 7 7 14 8 15 9 16 10 17 11 18 12
REMARK SMILES IDX 19 13 20 14 8 15 9 16 13 17 10 18 12 19 11 20
REMARK H PARENT
ROOT
ATOM      1  C   UNL     1     116.698 164.231 111.103  1.00  0.00     0.153 C 
ATOM      2  N   UNL     1     116.528 163.470 112.334  1.00  0.00    -0.313 N 
ATOM      3  C   UNL     1     116.352 164.206 113.512  1.00  0.00     0.248 C 
ATOM      4  O   UNL     1     116.272 165.438 113.516  1.00  0.00    -0.272 OA
ATOM      5  C   UNL     1     116.354 163.429 114.821  1.00  0.00     0.243 C 
ATOM      6  N   UNL     1     115.107 162.680 114.932  1.00  0.00    -0.274 NA
ATOM      7  C   UNL     1     114.935 161.672 114.144  1.00  0.00     0.075 C 
ATOM      8  C   UNL     1     115.960 161.182 113.175  1.00  0.00     0.026 A 
ATOM      9  C   UNL     1     116.183 159.792 113.134  1.00  0.00     0.033 A 
ATOM     10  C   UNL     1     117.034 159.249 112.180  1.00  0.00     0.041 A 
ATOM     11  Cl  UNL     1     117.288 157.549 112.125  1.00  0.00    -0.084 Cl
ATOM     12  C   UNL     1     117.671 160.073 111.263  1.00  0.00     0.023 A 
ATOM     13  C   UNL     1     117.473 161.457 111.318  1.00  0.00     0.028 A 
ATOM     14  C   UNL     1     116.639 162.044 112.290  1.00  0.00     0.053 A 
ENDROOT
BRANCH   7  15
ATOM     15  C   UNL     1     113.621 160.956 114.226  1.00  0.00     0.000 A 
ATOM     16  C   UNL     1     113.455 159.948 115.183  1.00  0.00     0.010 A 
ATOM     17  C   UNL     1     112.553 161.298 113.387  1.00  0.00     0.010 A 
ATOM     18  C   UNL     1     112.241 159.266 115.280  1.00  0.00     0.001 A 
ATOM     19  C   UNL     1     111.340 160.614 113.488  1.00  0.00     0.001 A 
ATOM     20  C   UNL     1     111.186 159.596 114.429  1.00  0.00     0.000 A 
ENDBRANCH   7  15
TORSDOF 1
ENDMDL
MODEL 9
REMARK VINA RESULT:    -6.563      6.296      8.891
REMARK INTER + INTRA:          -6.684
REMARK INTER:                  -6.285
REMARK INTRA:                  -0.399
REMARK UNBOUND:                 0.263
REMARK SMILES CN1C(=O)CN=C(c2ccccc2)c2cc(Cl)ccc21
REMARK SMILES IDX 1 1 2 2 3 3 4 4 5 5 6 6 7 7 14 8 15 9 16 10 17 11 18 12
REMARK SMILES IDX 19 13 20 14 8 15 9 16 13 17 10 18 12 19 11 20
REMARK H PARENT
ROOT
ATOM      1  C   UNL     1     113.114 158.187 116.007  1.00  0.00     0.153 C 
ATOM      2  N   UNL     1     114.458 157.873 116.475  1.00  0.00    -0.313 N 
ATOM      3  C   UNL     1     114.933 158.605 117.570  1.00  0.00     0.248 C 
ATOM      4  O   UNL     1     114.234 159.430 118.167  1.00  0.00    -0.272 OA
ATOM      5  C   UNL     1     116.393 158.413 117.951  1.00  0.00     0.243 C 
ATOM      6  N   UNL     1     116.555 157.102 118.572  1.00  0.00    -0.274 NA
ATOM      7  C   UNL     1     116.444 156.059 117.821  1.00  0.00     0.075 C 
ATOM      8  C   UNL     1     116.230 156.110 116.344  1.00  0.00     0.026 A 
ATOM      9  C   UNL     1     117.025 155.256 115.556  1.00  0.00     0.033 A 
ATOM     10  C   UNL     1     116.805 155.160 114.188  1.00  0.00     0.041 A 
ATOM     11  Cl  UNL     1     117.769 154.102 113.236  1.00  0.00    -0.084 Cl
ATOM     12  C   UNL     1     115.801 155.908 113.589  1.00  0.00     0.023 A 
ATOM     13  C   UNL     1     115.027 156.778 114.364  1.00  0.00     0.028 A 
ATOM     14  C   UNL     1     115.241 156.921 115.749  1.00  0.00     0.053 A 
ENDROOT
BRANCH   7  15
ATOM     15  C   UNL     1     116.546 154.721 118.488  1.00  0.00     0.000 A 
ATOM     16  C   UNL     1     117.606 154.481 119.370  1.00  0.00     0.010 A 
ATOM     17  C   UNL     1     115.587 153.724 118.268  1.00  0.00     0.010 A 
ATOM     18  C   UNL     1     117.723 153.244 120.005  1.00  0.00     0.001 A 
ATOM     19  C   UNL     1     115.708 152.487 118.905  1.00  0.00     0.001 A 
ATOM     20  C   UNL     1     116.777 152.246 119.768  1.00  0.00     0.000 A 
ENDBRANCH   7  15
TORSDOF 1
ENDMDL
