MODEL 1
REMARK VINA RESULT:    -6.848      0.000      0.000
REMARK INTER + INTRA:          -8.051
REMARK INTER:                  -7.448
REMARK INTRA:                  -0.602
REMARK UNBOUND:                -0.602
REMARK SMILES O=C1Nc2ccc(Cl)cc2C(c2ccccc2Cl)=NC1O
REMARK SMILES IDX 1 1 2 2 3 3 4 4 5 5 6 6 7 7 8 8 9 9 10 10 11 11 19 12 20 13
REMARK SMILES IDX 21 15 12 17 13 18 17 19 14 20 16 21 15 22 18 23
REMARK H PARENT 3 14 21 16
ROOT
ATOM      1  O   UNL     1     145.838  96.629 133.628  1.00  0.00    -0.269 OA
ATOM      2  C   UNL     1     144.796  97.140 134.047  1.00  0.00     0.276 C 
ATOM      3  N   UNL     1     144.193  96.601 135.155  1.00  0.00    -0.321 N 
ATOM      4  C   UNL     1     143.012  97.029 135.779  1.00  0.00     0.050 A 
ATOM      5  C   UNL     1     142.886  96.702 137.138  1.00  0.00     0.028 A 
ATOM      6  C   UNL     1     141.780  97.127 137.876  1.00  0.00     0.023 A 
ATOM      7  C   UNL     1     140.784  97.870 137.256  1.00  0.00     0.041 A 
ATOM      8  Cl  UNL     1     139.423  98.400 138.164  1.00  0.00    -0.084 Cl
ATOM      9  C   UNL     1     140.868  98.165 135.898  1.00  0.00     0.033 A 
ATOM     10  C   UNL     1     141.971  97.728 135.144  1.00  0.00     0.026 A 
ATOM     11  C   UNL     1     141.915  97.887 133.659  1.00  0.00     0.079 C 
ATOM     12  N   UNL     1     142.901  98.159 132.878  1.00  0.00    -0.243 NA
ATOM     13  C   UNL     1     144.210  98.439 133.449  1.00  0.00     0.323 C 
ATOM     14  H   UNL     1     144.752  95.883 135.597  1.00  0.00     0.170 HD
ENDROOT
BRANCH  13  15
ATOM     15  O   UNL     1     144.263  99.523 134.367  1.00  0.00    -0.364 OA
ATOM     16  H   UNL     1     143.354  99.636 134.690  1.00  0.00     0.213 HD
ENDBRANCH  13  15
BRANCH  11  17
ATOM     17  C   UNL     1     140.607  97.642 132.997  1.00  0.00     0.019 A 
ATOM     18  C   UNL     1     140.204  96.311 132.817  1.00  0.00     0.012 A 
ATOM     19  C   UNL     1     139.802  98.691 132.540  1.00  0.00     0.050 A 
ATOM     20  C   UNL     1     138.992  96.033 132.188  1.00  0.00     0.001 A 
ATOM     21  C   UNL     1     138.588  98.402 131.911  1.00  0.00     0.021 A 
ATOM     22  C   UNL     1     138.184  97.076 131.736  1.00  0.00     0.002 A 
ATOM     23  Cl  UNL     1     140.218 100.350 132.773  1.00  0.00    -0.084 Cl
ENDBRANCH  11  17
TORSDOF 2
ENDMDL
MODEL 2
REMARK VINA RESULT:    -6.793      2.979      4.426
REMARK INTER + INTRA:          -7.991
REMARK INTER:                  -7.483
REMARK INTRA:                  -0.509
REMARK UNBOUND:                -0.602
REMARK SMILES O=C1Nc2ccc(Cl)cc2C(c2ccccc2Cl)=NC1O
REMARK SMILES IDX 1 1 2 2 3 3 4 4 5 5 6 6 7 7 8 8 9 9 10 10 11 11 19 12 20 13
REMARK SMILES IDX 21 15 12 17 13 18 17 19 14 20 16 21 15 22 18 23
REMARK H PARENT 3 14 21 16
ROOT
ATOM      1  O   UNL     1     138.473 100.458 133.582  1.00  0.00    -0.269 OA
ATOM      2  C   UNL     1     139.045  99.419 133.923  1.00  0.00     0.276 C 
ATOM      3  N   UNL     1     139.729  99.399 135.112  1.00  0.00    -0.321 N 
ATOM      4  C   UNL     1     140.442  98.329 135.670  1.00  0.00     0.050 A 
ATOM      5  C   UNL     1     140.587  98.353 137.066  1.00  0.00     0.028 A 
ATOM      6  C   UNL     1     141.227  97.309 137.737  1.00  0.00     0.023 A 
ATOM      7  C   UNL     1     141.741  96.240 137.014  1.00  0.00     0.041 A 
ATOM      8  Cl  UNL     1     142.525  94.950 137.838  1.00  0.00    -0.084 Cl
ATOM      9  C   UNL     1     141.649  96.220 135.625  1.00  0.00     0.033 A 
ATOM     10  C   UNL     1     141.018  97.274 134.941  1.00  0.00     0.026 A 
ATOM     11  C   UNL     1     141.128  97.310 133.451  1.00  0.00     0.079 C 
ATOM     12  N   UNL     1     140.228  97.714 132.624  1.00  0.00    -0.243 NA
ATOM     13  C   UNL     1     138.918  98.102 133.125  1.00  0.00     0.323 C 
ATOM     14  H   UNL     1     139.590 100.239 135.660  1.00  0.00     0.170 HD
ENDROOT
BRANCH  13  15
ATOM     15  O   UNL     1     138.215  97.101 133.850  1.00  0.00    -0.364 OA
ATOM     16  H   UNL     1     138.683  96.270 133.670  1.00  0.00     0.213 HD
ENDBRANCH  13  15
BRANCH  11  17
ATOM     17  C   UNL     1     142.428  96.906 132.854  1.00  0.00     0.019 A 
ATOM     18  C   UNL     1     142.444  95.775 132.026  1.00  0.00     0.012 A 
ATOM     19  C   UNL     1     143.611  97.604 133.117  1.00  0.00     0.050 A 
ATOM     20  C   UNL     1     143.643  95.349 131.456  1.00  0.00     0.001 A 
ATOM     21  C   UNL     1     144.808  97.171 132.541  1.00  0.00     0.021 A 
ATOM     22  C   UNL     1     144.823  96.046 131.712  1.00  0.00     0.002 A 
ATOM     23  Cl  UNL     1     143.650  99.031 134.089  1.00  0.00    -0.084 Cl
ENDBRANCH  11  17
TORSDOF 2
ENDMDL
MODEL 3
REMARK VINA RESULT:    -6.689      2.485      4.400
REMARK INTER + INTRA:          -7.878
REMARK INTER:                  -7.278
REMARK INTRA:                  -0.600
REMARK UNBOUND:                -0.602
REMARK SMILES O=C1Nc2ccc(Cl)cc2C(c2ccccc2Cl)=NC1O
REMARK SMILES IDX 1 1 2 2 3 3 4 4 5 5 6 6 7 7 8 8 9 9 10 10 11 11 19 12 20 13
REMARK SMILES IDX 21 15 12 17 13 18 17 19 14 20 16 21 15 22 18 23
REMARK H PARENT 3 14 21 16
ROOT
ATOM      1  O   UNL     1     140.791  97.842 137.827  1.00  0.00    -0.269 OA
ATOM      2  C   UNL     1     140.997  98.036 136.626  1.00  0.00     0.276 C 
ATOM      3  N   UNL     1     140.115  98.814 135.919  1.00  0.00    -0.321 N 
ATOM      4  C   UNL     1     140.169  99.145 134.557  1.00  0.00     0.050 A 
ATOM      5  C   UNL     1     139.514 100.333 134.192  1.00  0.00     0.028 A 
ATOM      6  C   UNL     1     139.551 100.793 132.875  1.00  0.00     0.023 A 
ATOM      7  C   UNL     1     140.232 100.061 131.910  1.00  0.00     0.041 A 
ATOM      8  Cl  UNL     1     140.285 100.629 130.287  1.00  0.00    -0.084 Cl
ATOM      9  C   UNL     1     140.848  98.858 132.243  1.00  0.00     0.033 A 
ATOM     10  C   UNL     1     140.803  98.380 133.564  1.00  0.00     0.026 A 
ATOM     11  C   UNL     1     141.294  96.993 133.827  1.00  0.00     0.079 C 
ATOM     12  N   UNL     1     141.911  96.584 134.879  1.00  0.00    -0.243 NA
ATOM     13  C   UNL     1     142.276  97.541 135.913  1.00  0.00     0.323 C 
ATOM     14  H   UNL     1     139.423  99.258 136.508  1.00  0.00     0.170 HD
ENDROOT
BRANCH  13  15
ATOM     15  O   UNL     1     143.105  98.616 135.492  1.00  0.00    -0.364 OA
ATOM     16  H   UNL     1     142.936  98.721 134.542  1.00  0.00     0.213 HD
ENDBRANCH  13  15
BRANCH  11  17
ATOM     17  C   UNL     1     140.985  95.956 132.807  1.00  0.00     0.019 A 
ATOM     18  C   UNL     1     142.033  95.510 131.990  1.00  0.00     0.012 A 
ATOM     19  C   UNL     1     139.692  95.449 132.638  1.00  0.00     0.050 A 
ATOM     20  C   UNL     1     141.787  94.549 131.010  1.00  0.00     0.001 A 
ATOM     21  C   UNL     1     139.455  94.486 131.654  1.00  0.00     0.021 A 
ATOM     22  C   UNL     1     140.500  94.038 130.842  1.00  0.00     0.002 A 
ATOM     23  Cl  UNL     1     138.370  95.922 133.643  1.00  0.00    -0.084 Cl
ENDBRANCH  11  17
TORSDOF 2
ENDMDL
MODEL 4
REMARK VINA RESULT:    -6.588      3.364      4.487
REMARK INTER + INTRA:          -7.768
REMARK INTER:                  -7.168
REMARK INTRA:                  -0.600
REMARK UNBOUND:                -0.602
REMARK SMILES O=C1Nc2ccc(Cl)cc2C(c2ccccc2Cl)=NC1O
REMARK SMILES IDX 1 1 2 2 3 3 4 4 5 5 6 6 7 7 8 8 9 9 10 10 11 11 19 12 20 13
REMARK SMILES IDX 21 15 12 17 13 18 17 19 14 20 16 21 15 22 18 23
REMARK H PARENT 3 14 21 16
ROOT
ATOM      1  O   UNL     1     144.560  97.038 139.625  1.00  0.00    -0.269 OA
ATOM      2  C   UNL     1     143.994  96.502 138.668  1.00  0.00     0.276 C 
ATOM      3  N   UNL     1     144.756  96.007 137.640  1.00  0.00    -0.321 N 
ATOM      4  C   UNL     1     144.308  95.374 136.471  1.00  0.00     0.050 A 
ATOM      5  C   UNL     1     145.224  94.505 135.858  1.00  0.00     0.028 A 
ATOM      6  C   UNL     1     144.868  93.776 134.723  1.00  0.00     0.023 A 
ATOM      7  C   UNL     1     143.596  93.921 134.183  1.00  0.00     0.041 A 
ATOM      8  Cl  UNL     1     143.151  93.019 132.789  1.00  0.00    -0.084 Cl
ATOM      9  C   UNL     1     142.688  94.812 134.750  1.00  0.00     0.033 A 
ATOM     10  C   UNL     1     143.045  95.562 135.884  1.00  0.00     0.026 A 
ATOM     11  C   UNL     1     142.121  96.650 136.327  1.00  0.00     0.079 C 
ATOM     12  N   UNL     1     141.880  97.007 137.540  1.00  0.00    -0.243 NA
ATOM     13  C   UNL     1     142.469  96.254 138.638  1.00  0.00     0.323 C 
ATOM     14  H   UNL     1     145.748  96.033 137.838  1.00  0.00     0.170 HD
ENDROOT
BRANCH  13  15
ATOM     15  O   UNL     1     142.149  94.870 138.677  1.00  0.00    -0.364 OA
ATOM     16  H   UNL     1     142.100  94.639 139.619  1.00  0.00     0.213 HD
ENDBRANCH  13  15
BRANCH  11  17
ATOM     17  C   UNL     1     141.457  97.453 135.266  1.00  0.00     0.019 A 
ATOM     18  C   UNL     1     140.091  97.237 135.040  1.00  0.00     0.012 A 
ATOM     19  C   UNL     1     142.163  98.383 134.494  1.00  0.00     0.050 A 
ATOM     20  C   UNL     1     139.430  97.957 134.046  1.00  0.00     0.001 A 
ATOM     21  C   UNL     1     141.492  99.100 133.500  1.00  0.00     0.021 A 
ATOM     22  C   UNL     1     140.129  98.887 133.277  1.00  0.00     0.002 A 
ATOM     23  Cl  UNL     1     143.833  98.729 134.755  1.00  0.00    -0.084 Cl
ENDBRANCH  11  17
TORSDOF 2
ENDMDL
MODEL 5
REMARK VINA RESULT:    -5.998      3.174      4.381
REMARK INTER + INTRA:          -7.126
REMARK INTER:                  -6.618
REMARK INTRA:                  -0.508
REMARK UNBOUND:                -0.602
REMARK SMILES O=C1Nc2ccc(Cl)cc2C(c2ccccc2Cl)=NC1O
REMARK SMILES IDX 1 1 2 2 3 3 4 4 5 5 6 6 7 7 8 8 9 9 10 10 11 11 19 12 20 13
REMARK SMILES IDX 21 15 12 17 13 18 17 19 14 20 16 21 15 22 18 23
REMARK H PARENT 3 14 21 16
ROOT
ATOM      1  O   UNL     1     141.096 100.789 130.109  1.00  0.00    -0.269 OA
ATOM      2  C   UNL     1     140.843  99.896 130.922  1.00  0.00     0.276 C 
ATOM      3  N   UNL     1     141.769  99.600 131.891  1.00  0.00    -0.321 N 
ATOM      4  C   UNL     1     141.675  98.625 132.894  1.00  0.00     0.050 A 
ATOM      5  C   UNL     1     142.444  98.857 134.045  1.00  0.00     0.028 A 
ATOM      6  C   UNL     1     142.385  97.984 135.133  1.00  0.00     0.023 A 
ATOM      7  C   UNL     1     141.566  96.864 135.072  1.00  0.00     0.041 A 
ATOM      8  Cl  UNL     1     141.485  95.790 136.413  1.00  0.00    -0.084 Cl
ATOM      9  C   UNL     1     140.830  96.592 133.921  1.00  0.00     0.033 A 
ATOM     10  C   UNL     1     140.895  97.458 132.816  1.00  0.00     0.026 A 
ATOM     11  C   UNL     1     140.257  97.017 131.539  1.00  0.00     0.079 C 
ATOM     12  N   UNL     1     139.659  97.766 130.681  1.00  0.00    -0.243 NA
ATOM     13  C   UNL     1     139.474  99.180 130.971  1.00  0.00     0.323 C 
ATOM     14  H   UNL     1     142.543 100.251 131.906  1.00  0.00     0.170 HD
ENDROOT
BRANCH  13  15
ATOM     15  O   UNL     1     138.756  99.476 132.162  1.00  0.00    -0.364 OA
ATOM     16  H   UNL     1     138.517  98.616 132.544  1.00  0.00     0.213 HD
ENDBRANCH  13  15
BRANCH  11  17
ATOM     17  C   UNL     1     140.378  95.580 131.178  1.00  0.00     0.019 A 
ATOM     18  C   UNL     1     141.656  95.086 130.879  1.00  0.00     0.012 A 
ATOM     19  C   UNL     1     139.263  94.738 131.110  1.00  0.00     0.050 A 
ATOM     20  C   UNL     1     141.816  93.749 130.521  1.00  0.00     0.001 A 
ATOM     21  C   UNL     1     139.433  93.399 130.751  1.00  0.00     0.021 A 
ATOM     22  C   UNL     1     140.707  92.906 130.457  1.00  0.00     0.002 A 
ATOM     23  Cl  UNL     1     137.671  95.273 131.512  1.00  0.00    -0.084 Cl
ENDBRANCH  11  17
TORSDOF 2
ENDMDL
MODEL 6
REMARK VINA RESULT:    -5.969      3.946      5.456
REMARK INTER + INTRA:          -7.095
REMARK INTER:                  -6.521
REMARK INTRA:                  -0.574
REMARK UNBOUND:                -0.602
REMARK SMILES O=C1Nc2ccc(Cl)cc2C(c2ccccc2Cl)=NC1O
REMARK SMILES IDX 1 1 2 2 3 3 4 4 5 5 6 6 7 7 8 8 9 9 10 10 11 11 19 12 20 13
REMARK SMILES IDX 21 15 12 17 13 18 17 19 14 20 16 21 15 22 18 23
REMARK H PARENT 3 14 21 16
ROOT
ATOM      1  O   UNL     1     143.678  96.988 141.202  1.00  0.00    -0.269 OA
ATOM      2  C   UNL     1     143.641  96.390 140.123  1.00  0.00     0.276 C 
ATOM      3  N   UNL     1     144.798  96.264 139.396  1.00  0.00    -0.321 N 
ATOM      4  C   UNL     1     144.963  95.632 138.155  1.00  0.00     0.050 A 
ATOM      5  C   UNL     1     146.257  95.165 137.875  1.00  0.00     0.028 A 
ATOM      6  C   UNL     1     146.526  94.468 136.696  1.00  0.00     0.023 A 
ATOM      7  C   UNL     1     145.505  94.245 135.781  1.00  0.00     0.041 A 
ATOM      8  Cl  UNL     1     145.832  93.380 134.331  1.00  0.00    -0.084 Cl
ATOM      9  C   UNL     1     144.226  94.739 136.019  1.00  0.00     0.033 A 
ATOM     10  C   UNL     1     143.950  95.455 137.197  1.00  0.00     0.026 A 
ATOM     11  C   UNL     1     142.627  96.141 137.309  1.00  0.00     0.079 C 
ATOM     12  N   UNL     1     141.926  96.288 138.378  1.00  0.00    -0.243 NA
ATOM     13  C   UNL     1     142.372  95.668 139.617  1.00  0.00     0.323 C 
ATOM     14  H   UNL     1     145.614  96.590 139.896  1.00  0.00     0.170 HD
ENDROOT
BRANCH  13  15
ATOM     15  O   UNL     1     142.539  94.257 139.574  1.00  0.00    -0.364 OA
ATOM     16  H   UNL     1     143.088  94.035 140.344  1.00  0.00     0.213 HD
ENDBRANCH  13  15
BRANCH  11  17
ATOM     17  C   UNL     1     142.086  96.783 136.081  1.00  0.00     0.019 A 
ATOM     18  C   UNL     1     142.514  98.083 135.780  1.00  0.00     0.012 A 
ATOM     19  C   UNL     1     141.162  96.134 135.255  1.00  0.00     0.050 A 
ATOM     20  C   UNL     1     142.023  98.730 134.647  1.00  0.00     0.001 A 
ATOM     21  C   UNL     1     140.676  96.790 134.121  1.00  0.00     0.021 A 
ATOM     22  C   UNL     1     141.105  98.085 133.819  1.00  0.00     0.002 A 
ATOM     23  Cl  UNL     1     140.633  94.517 135.544  1.00  0.00    -0.084 Cl
ENDBRANCH  11  17
TORSDOF 2
ENDMDL
MODEL 7
REMARK VINA RESULT:    -5.856      3.483      5.297
REMARK INTER + INTRA:          -6.972
REMARK INTER:                  -6.716
REMARK INTRA:                  -0.256
REMARK UNBOUND:                -0.602
REMARK SMILES O=C1Nc2ccc(Cl)cc2C(c2ccccc2Cl)=NC1O
REMARK SMILES IDX 1 1 2 2 3 3 4 4 5 5 6 6 7 7 8 8 9 9 10 10 11 11 19 12 20 13
REMARK SMILES IDX 21 15 12 17 13 18 17 19 14 20 16 21 15 22 18 23
REMARK H PARENT 3 14 21 16
ROOT
ATOM      1  O   UNL     1     142.345  95.017 140.687  1.00  0.00    -0.269 OA
ATOM      2  C   UNL     1     142.583  95.607 139.630  1.00  0.00     0.276 C 
ATOM      3  N   UNL     1     141.539  96.141 138.918  1.00  0.00    -0.321 N 
ATOM      4  C   UNL     1     141.600  96.836 137.702  1.00  0.00     0.050 A 
ATOM      5  C   UNL     1     140.539  97.721 137.451  1.00  0.00     0.028 A 
ATOM      6  C   UNL     1     140.524  98.510 136.300  1.00  0.00     0.023 A 
ATOM      7  C   UNL     1     141.563  98.410 135.383  1.00  0.00     0.041 A 
ATOM      8  Cl  UNL     1     141.551  99.386 133.968  1.00  0.00    -0.084 Cl
ATOM      9  C   UNL     1     142.601  97.505 135.592  1.00  0.00     0.033 A 
ATOM     10  C   UNL     1     142.616  96.696 136.741  1.00  0.00     0.026 A 
ATOM     11  C   UNL     1     143.630  95.601 136.817  1.00  0.00     0.079 C 
ATOM     12  N   UNL     1     144.238  95.189 137.874  1.00  0.00    -0.243 NA
ATOM     13  C   UNL     1     144.023  95.878 139.137  1.00  0.00     0.323 C 
ATOM     14  H   UNL     1     140.659  96.091 139.415  1.00  0.00     0.170 HD
ENDROOT
BRANCH  13  15
ATOM     15  O   UNL     1     144.341  97.263 139.145  1.00  0.00    -0.364 OA
ATOM     16  H   UNL     1     144.440  97.504 140.081  1.00  0.00     0.213 HD
ENDBRANCH  13  15
BRANCH  11  17
ATOM     17  C   UNL     1     143.927  94.860 135.563  1.00  0.00     0.019 A 
ATOM     18  C   UNL     1     145.265  94.777 135.154  1.00  0.00     0.012 A 
ATOM     19  C   UNL     1     142.915  94.279 134.791  1.00  0.00     0.050 A 
ATOM     20  C   UNL     1     145.590  94.104 133.976  1.00  0.00     0.001 A 
ATOM     21  C   UNL     1     143.250  93.606 133.613  1.00  0.00     0.021 A 
ATOM     22  C   UNL     1     144.584  93.520 133.207  1.00  0.00     0.002 A 
ATOM     23  Cl  UNL     1     141.255  94.306 135.264  1.00  0.00    -0.084 Cl
ENDBRANCH  11  17
TORSDOF 2
ENDMDL
MODEL 8
REMARK VINA RESULT:    -5.762      2.750      3.863
REMARK INTER + INTRA:          -6.870
REMARK INTER:                  -6.273
REMARK INTRA:                  -0.597
REMARK UNBOUND:                -0.602
REMARK SMILES O=C1Nc2ccc(Cl)cc2C(c2ccccc2Cl)=NC1O
REMARK SMILES IDX 1 1 2 2 3 3 4 4 5 5 6 6 7 7 8 8 9 9 10 10 11 11 19 12 20 13
REMARK SMILES IDX 21 15 12 17 13 18 17 19 14 20 16 21 15 22 18 23
REMARK H PARENT 3 14 21 16
ROOT
ATOM      1  O   UNL     1     142.341  94.602 138.148  1.00  0.00    -0.269 OA
ATOM      2  C   UNL     1     142.332  95.328 137.151  1.00  0.00     0.276 C 
ATOM      3  N   UNL     1     141.290  96.204 136.978  1.00  0.00    -0.321 N 
ATOM      4  C   UNL     1     141.093  97.101 135.919  1.00  0.00     0.050 A 
ATOM      5  C   UNL     1     140.301  98.223 136.207  1.00  0.00     0.028 A 
ATOM      6  C   UNL     1     140.086  99.213 135.247  1.00  0.00     0.023 A 
ATOM      7  C   UNL     1     140.651  99.081 133.985  1.00  0.00     0.041 A 
ATOM      8  Cl  UNL     1     140.394 100.302 132.802  1.00  0.00    -0.084 Cl
ATOM      9  C   UNL     1     141.403  97.954 133.664  1.00  0.00     0.033 A 
ATOM     10  C   UNL     1     141.611  96.945 134.621  1.00  0.00     0.026 A 
ATOM     11  C   UNL     1     142.242  95.668 134.170  1.00  0.00     0.079 C 
ATOM     12  N   UNL     1     143.053  94.931 134.845  1.00  0.00    -0.243 NA
ATOM     13  C   UNL     1     143.510  95.381 136.151  1.00  0.00     0.323 C 
ATOM     14  H   UNL     1     140.672  96.243 137.779  1.00  0.00     0.170 HD
ENDROOT
BRANCH  13  15
ATOM     15  O   UNL     1     144.175  96.637 136.173  1.00  0.00    -0.364 OA
ATOM     16  H   UNL     1     144.809  96.584 136.907  1.00  0.00     0.213 HD
ENDBRANCH  13  15
BRANCH  11  17
ATOM     17  C   UNL     1     141.848  95.149 132.833  1.00  0.00     0.019 A 
ATOM     18  C   UNL     1     140.651  94.426 132.740  1.00  0.00     0.012 A 
ATOM     19  C   UNL     1     142.645  95.346 131.700  1.00  0.00     0.050 A 
ATOM     20  C   UNL     1     140.248  93.908 131.510  1.00  0.00     0.001 A 
ATOM     21  C   UNL     1     142.233  94.823 130.471  1.00  0.00     0.021 A 
ATOM     22  C   UNL     1     141.038  94.106 130.377  1.00  0.00     0.002 A 
ATOM     23  Cl  UNL     1     144.104  96.267 131.740  1.00  0.00    -0.084 Cl
ENDBRANCH  11  17
TORSDOF 2
ENDMDL
MODEL 9
REMARK VINA RESULT:    -5.679      3.188      4.322
REMARK INTER + INTRA:          -6.780
REMARK INTER:                  -6.192
REMARK INTRA:                  -0.588
REMARK UNBOUND:                -0.602
REMARK SMILES O=C1Nc2ccc(Cl)cc2C(c2ccccc2Cl)=NC1O
REMARK SMILES IDX 1 1 2 2 3 3 4 4 5 5 6 6 7 7 8 8 9 9 10 10 11 11 19 12 20 13
REMARK SMILES IDX 21 15 12 17 13 18 17 19 14 20 16 21 15 22 18 23
REMARK H PARENT 3 14 21 16
ROOT
ATOM      1  O   UNL     1     141.243 100.221 130.598  1.00  0.00    -0.269 OA
ATOM      2  C   UNL     1     141.111  99.312 131.422  1.00  0.00     0.276 C 
ATOM      3  N   UNL     1     142.021  99.205 132.444  1.00  0.00    -0.321 N 
ATOM      4  C   UNL     1     142.048  98.248 133.468  1.00  0.00     0.050 A 
ATOM      5  C   UNL     1     142.700  98.636 134.649  1.00  0.00     0.028 A 
ATOM      6  C   UNL     1     142.739  97.786 135.756  1.00  0.00     0.023 A 
ATOM      7  C   UNL     1     142.138  96.536 135.685  1.00  0.00     0.041 A 
ATOM      8  Cl  UNL     1     142.177  95.490 137.049  1.00  0.00    -0.084 Cl
ATOM      9  C   UNL     1     141.525  96.115 134.507  1.00  0.00     0.033 A 
ATOM     10  C   UNL     1     141.495  96.958 133.383  1.00  0.00     0.026 A 
ATOM     11  C   UNL     1     141.016  96.387 132.088  1.00  0.00     0.079 C 
ATOM     12  N   UNL     1     140.341  97.000 131.181  1.00  0.00    -0.243 NA
ATOM     13  C   UNL     1     139.891  98.363 131.422  1.00  0.00     0.323 C 
ATOM     14  H   UNL     1     142.664  99.985 132.479  1.00  0.00     0.170 HD
ENDROOT
BRANCH  13  15
ATOM     15  O   UNL     1     139.069  98.547 132.567  1.00  0.00    -0.364 OA
ATOM     16  H   UNL     1     138.267  98.024 132.400  1.00  0.00     0.213 HD
ENDBRANCH  13  15
BRANCH  11  17
ATOM     17  C   UNL     1     141.412  94.988 131.774  1.00  0.00     0.019 A 
ATOM     18  C   UNL     1     140.412  94.005 131.796  1.00  0.00     0.012 A 
ATOM     19  C   UNL     1     142.737  94.642 131.486  1.00  0.00     0.050 A 
ATOM     20  C   UNL     1     140.739  92.678 131.521  1.00  0.00     0.001 A 
ATOM     21  C   UNL     1     143.054  93.309 131.212  1.00  0.00     0.021 A 
ATOM     22  C   UNL     1     142.058  92.330 131.230  1.00  0.00     0.002 A 
ATOM     23  Cl  UNL     1     144.003  95.812 131.397  1.00  0.00    -0.084 Cl
ENDBRANCH  11  17
TORSDOF 2
ENDMDL
