MODEL 1
REMARK VINA RESULT:   -10.589      0.000      0.000
REMARK INTER + INTRA:         -11.596
REMARK INTER:                 -11.208
REMARK INTRA:                  -0.389
REMARK UNBOUND:                -0.389
REMARK SMILES Cc1nnc2n1-c1ccc(Cl)cc1C(c1ccccc1)=NC2
REMARK SMILES IDX 1 1 2 2 3 3 4 4 5 5 6 6 7 7 8 8 9 9 10 10 11 11 12 12 13 13
REMARK SMILES IDX 14 14 21 15 22 16 15 17 16 18 20 19 17 20 19 21 18 22
REMARK H PARENT
ROOT
ATOM      1  C   UNL     1     115.451 160.737 112.991  1.00  0.00     0.090 C 
ATOM      2  C   UNL     1     116.678 160.847 112.168  1.00  0.00     0.134 A 
ATOM      3  N   UNL     1     117.132 161.977 111.664  1.00  0.00    -0.135 NA
ATOM      4  N   UNL     1     118.187 161.690 110.845  1.00  0.00    -0.133 NA
ATOM      5  C   UNL     1     118.368 160.387 110.861  1.00  0.00     0.159 A 
ATOM      6  N   UNL     1     117.464 159.797 111.718  1.00  0.00    -0.281 N 
ATOM      7  C   UNL     1     117.456 158.427 112.086  1.00  0.00     0.058 A 
ATOM      8  C   UNL     1     117.120 158.072 113.403  1.00  0.00     0.029 A 
ATOM      9  C   UNL     1     117.195 156.739 113.818  1.00  0.00     0.023 A 
ATOM     10  C   UNL     1     117.620 155.758 112.930  1.00  0.00     0.041 A 
ATOM     11  Cl  UNL     1     117.730 154.123 113.451  1.00  0.00    -0.084 Cl
ATOM     12  C   UNL     1     117.954 156.091 111.621  1.00  0.00     0.033 A 
ATOM     13  C   UNL     1     117.857 157.424 111.179  1.00  0.00     0.026 A 
ATOM     14  C   UNL     1     118.118 157.679 109.725  1.00  0.00     0.075 C 
ATOM     15  N   UNL     1     118.837 158.645 109.263  1.00  0.00    -0.276 NA
ATOM     16  C   UNL     1     119.428 159.621 110.167  1.00  0.00     0.220 C 
ENDROOT
BRANCH  14  17
ATOM     17  C   UNL     1     117.506 156.751 108.717  1.00  0.00     0.000 A 
ATOM     18  C   UNL     1     118.300 156.268 107.669  1.00  0.00     0.010 A 
ATOM     19  C   UNL     1     116.155 156.390 108.789  1.00  0.00     0.010 A 
ATOM     20  C   UNL     1     117.753 155.406 106.718  1.00  0.00     0.001 A 
ATOM     21  C   UNL     1     115.614 155.525 107.834  1.00  0.00     0.001 A 
ATOM     22  C   UNL     1     116.413 155.031 106.804  1.00  0.00     0.000 A 
ENDBRANCH  14  17
TORSDOF 1
ENDMDL
MODEL 2
REMARK VINA RESULT:    -9.107      2.889      6.349
REMARK INTER + INTRA:         -10.028
REMARK INTER:                 -10.329
REMARK INTRA:                   0.301
REMARK UNBOUND:                -0.389
REMARK SMILES Cc1nnc2n1-c1ccc(Cl)cc1C(c1ccccc1)=NC2
REMARK SMILES IDX 1 1 2 2 3 3 4 4 5 5 6 6 7 7 8 8 9 9 10 10 11 11 12 12 13 13
REMARK SMILES IDX 14 14 21 15 22 16 15 17 16 18 20 19 17 20 19 21 18 22
REMARK H PARENT
ROOT
ATOM      1  C   UNL     1     117.461 156.474 106.448  1.00  0.00     0.090 C 
ATOM      2  C   UNL     1     117.530 156.179 107.898  1.00  0.00     0.134 A 
ATOM      3  N   UNL     1     116.818 155.246 108.499  1.00  0.00    -0.135 NA
ATOM      4  N   UNL     1     117.021 155.350 109.846  1.00  0.00    -0.133 NA
ATOM      5  C   UNL     1     117.857 156.344 110.053  1.00  0.00     0.159 A 
ATOM      6  N   UNL     1     118.250 156.886 108.849  1.00  0.00    -0.281 N 
ATOM      7  C   UNL     1     119.247 157.883 108.685  1.00  0.00     0.058 A 
ATOM      8  C   UNL     1     120.103 157.820 107.573  1.00  0.00     0.029 A 
ATOM      9  C   UNL     1     121.153 158.732 107.435  1.00  0.00     0.023 A 
ATOM     10  C   UNL     1     121.365 159.700 108.410  1.00  0.00     0.041 A 
ATOM     11  Cl  UNL     1     122.670 160.807 108.247  1.00  0.00    -0.084 Cl
ATOM     12  C   UNL     1     120.525 159.778 109.518  1.00  0.00     0.033 A 
ATOM     13  C   UNL     1     119.446 158.885 109.656  1.00  0.00     0.026 A 
ATOM     14  C   UNL     1     118.519 159.113 110.813  1.00  0.00     0.075 C 
ATOM     15  N   UNL     1     118.067 158.189 111.589  1.00  0.00    -0.276 NA
ATOM     16  C   UNL     1     118.409 156.794 111.351  1.00  0.00     0.220 C 
ENDROOT
BRANCH  14  17
ATOM     17  C   UNL     1     118.073 160.516 111.102  1.00  0.00     0.000 A 
ATOM     18  C   UNL     1     116.995 160.720 111.972  1.00  0.00     0.010 A 
ATOM     19  C   UNL     1     118.693 161.616 110.495  1.00  0.00     0.010 A 
ATOM     20  C   UNL     1     116.560 162.015 112.256  1.00  0.00     0.001 A 
ATOM     21  C   UNL     1     118.253 162.910 110.784  1.00  0.00     0.001 A 
ATOM     22  C   UNL     1     117.192 163.108 111.666  1.00  0.00     0.000 A 
ENDBRANCH  14  17
TORSDOF 1
ENDMDL
MODEL 3
REMARK VINA RESULT:    -8.546      2.019      4.920
REMARK INTER + INTRA:          -9.434
REMARK INTER:                  -8.933
REMARK INTRA:                  -0.501
REMARK UNBOUND:                -0.389
REMARK SMILES Cc1nnc2n1-c1ccc(Cl)cc1C(c1ccccc1)=NC2
REMARK SMILES IDX 1 1 2 2 3 3 4 4 5 5 6 6 7 7 8 8 9 9 10 10 11 11 12 12 13 13
REMARK SMILES IDX 14 14 21 15 22 16 15 17 16 18 20 19 17 20 19 21 18 22
REMARK H PARENT
ROOT
ATOM      1  C   UNL     1     120.833 157.989 107.883  1.00  0.00     0.090 C 
ATOM      2  C   UNL     1     120.027 158.879 108.750  1.00  0.00     0.134 A 
ATOM      3  N   UNL     1     120.457 160.025 109.238  1.00  0.00    -0.135 NA
ATOM      4  N   UNL     1     119.517 160.504 110.106  1.00  0.00    -0.133 NA
ATOM      5  C   UNL     1     118.520 159.646 110.135  1.00  0.00     0.159 A 
ATOM      6  N   UNL     1     118.766 158.610 109.261  1.00  0.00    -0.281 N 
ATOM      7  C   UNL     1     117.849 157.578 108.934  1.00  0.00     0.058 A 
ATOM      8  C   UNL     1     117.802 157.094 107.616  1.00  0.00     0.029 A 
ATOM      9  C   UNL     1     116.845 156.146 107.242  1.00  0.00     0.023 A 
ATOM     10  C   UNL     1     115.922 155.687 108.175  1.00  0.00     0.041 A 
ATOM     11  Cl  UNL     1     114.735 154.535 107.706  1.00  0.00    -0.084 Cl
ATOM     12  C   UNL     1     115.956 156.153 109.486  1.00  0.00     0.033 A 
ATOM     13  C   UNL     1     116.931 157.086 109.884  1.00  0.00     0.026 A 
ATOM     14  C   UNL     1     116.974 157.445 111.340  1.00  0.00     0.075 C 
ATOM     15  N   UNL     1     117.097 158.643 111.801  1.00  0.00    -0.276 NA
ATOM     16  C   UNL     1     117.253 159.769 110.893  1.00  0.00     0.220 C 
ENDROOT
BRANCH  14  17
ATOM     17  C   UNL     1     116.870 156.340 112.349  1.00  0.00     0.000 A 
ATOM     18  C   UNL     1     115.718 156.251 113.141  1.00  0.00     0.010 A 
ATOM     19  C   UNL     1     117.912 155.423 112.534  1.00  0.00     0.010 A 
ATOM     20  C   UNL     1     115.598 155.233 114.088  1.00  0.00     0.001 A 
ATOM     21  C   UNL     1     117.785 154.406 113.483  1.00  0.00     0.001 A 
ATOM     22  C   UNL     1     116.628 154.310 114.255  1.00  0.00     0.000 A 
ENDBRANCH  14  17
TORSDOF 1
ENDMDL
MODEL 4
REMARK VINA RESULT:    -7.984      1.731      2.336
REMARK INTER + INTRA:          -8.840
REMARK INTER:                  -8.961
REMARK INTRA:                   0.122
REMARK UNBOUND:                -0.389
REMARK SMILES Cc1nnc2n1-c1ccc(Cl)cc1C(c1ccccc1)=NC2
REMARK SMILES IDX 1 1 2 2 3 3 4 4 5 5 6 6 7 7 8 8 9 9 10 10 11 11 12 12 13 13
REMARK SMILES IDX 14 14 21 15 22 16 15 17 16 18 20 19 17 20 19 21 18 22
REMARK H PARENT
ROOT
ATOM      1  C   UNL     1     117.704 162.474 110.805  1.00  0.00     0.090 C 
ATOM      2  C   UNL     1     118.970 162.025 110.180  1.00  0.00     0.134 A 
ATOM      3  N   UNL     1     119.833 162.830 109.594  1.00  0.00    -0.135 NA
ATOM      4  N   UNL     1     120.802 162.069 109.005  1.00  0.00    -0.133 NA
ATOM      5  C   UNL     1     120.523 160.805 109.242  1.00  0.00     0.159 A 
ATOM      6  N   UNL     1     119.391 160.713 110.021  1.00  0.00    -0.281 N 
ATOM      7  C   UNL     1     118.876 159.515 110.581  1.00  0.00     0.058 A 
ATOM      8  C   UNL     1     118.307 159.546 111.865  1.00  0.00     0.029 A 
ATOM      9  C   UNL     1     117.879 158.366 112.479  1.00  0.00     0.023 A 
ATOM     10  C   UNL     1     118.028 157.149 111.825  1.00  0.00     0.041 A 
ATOM     11  Cl  UNL     1     117.518 155.697 112.592  1.00  0.00    -0.084 Cl
ATOM     12  C   UNL     1     118.587 157.099 110.550  1.00  0.00     0.033 A 
ATOM     13  C   UNL     1     118.997 158.282 109.907  1.00  0.00     0.026 A 
ATOM     14  C   UNL     1     119.475 158.155 108.492  1.00  0.00     0.075 C 
ATOM     15  N   UNL     1     120.524 158.733 108.013  1.00  0.00    -0.276 NA
ATOM     16  C   UNL     1     121.320 159.622 108.846  1.00  0.00     0.220 C 
ENDROOT
BRANCH  14  17
ATOM     17  C   UNL     1     118.686 157.297 107.547  1.00  0.00     0.000 A 
ATOM     18  C   UNL     1     119.178 157.082 106.254  1.00  0.00     0.010 A 
ATOM     19  C   UNL     1     117.459 156.738 107.926  1.00  0.00     0.010 A 
ATOM     20  C   UNL     1     118.462 156.289 105.356  1.00  0.00     0.001 A 
ATOM     21  C   UNL     1     116.747 155.944 107.023  1.00  0.00     0.001 A 
ATOM     22  C   UNL     1     117.251 155.717 105.742  1.00  0.00     0.000 A 
ENDBRANCH  14  17
TORSDOF 1
ENDMDL
MODEL 5
REMARK VINA RESULT:    -7.270      4.412      7.091
REMARK INTER + INTRA:          -8.083
REMARK INTER:                  -7.641
REMARK INTRA:                  -0.442
REMARK UNBOUND:                -0.389
REMARK SMILES Cc1nnc2n1-c1ccc(Cl)cc1C(c1ccccc1)=NC2
REMARK SMILES IDX 1 1 2 2 3 3 4 4 5 5 6 6 7 7 8 8 9 9 10 10 11 11 12 12 13 13
REMARK SMILES IDX 14 14 21 15 22 16 15 17 16 18 20 19 17 20 19 21 18 22
REMARK H PARENT
ROOT
ATOM      1  C   UNL     1     115.936 153.828 116.702  1.00  0.00     0.090 C 
ATOM      2  C   UNL     1     116.318 155.086 117.384  1.00  0.00     0.134 A 
ATOM      3  N   UNL     1     116.338 155.242 118.692  1.00  0.00    -0.135 NA
ATOM      4  N   UNL     1     116.590 156.556 118.966  1.00  0.00    -0.133 NA
ATOM      5  C   UNL     1     116.727 157.189 117.820  1.00  0.00     0.159 A 
ATOM      6  N   UNL     1     116.606 156.298 116.776  1.00  0.00    -0.281 N 
ATOM      7  C   UNL     1     116.831 156.603 115.408  1.00  0.00     0.058 A 
ATOM      8  C   UNL     1     117.441 155.644 114.582  1.00  0.00     0.029 A 
ATOM      9  C   UNL     1     117.761 155.951 113.257  1.00  0.00     0.023 A 
ATOM     10  C   UNL     1     117.488 157.217 112.752  1.00  0.00     0.041 A 
ATOM     11  Cl  UNL     1     117.900 157.596 111.126  1.00  0.00    -0.084 Cl
ATOM     12  C   UNL     1     116.880 158.179 113.555  1.00  0.00     0.033 A 
ATOM     13  C   UNL     1     116.527 157.876 114.883  1.00  0.00     0.026 A 
ATOM     14  C   UNL     1     115.769 158.925 115.640  1.00  0.00     0.075 C 
ATOM     15  N   UNL     1     116.014 159.279 116.856  1.00  0.00    -0.276 NA
ATOM     16  C   UNL     1     117.062 158.617 117.619  1.00  0.00     0.220 C 
ENDROOT
BRANCH  14  17
ATOM     17  C   UNL     1     114.637 159.626 114.948  1.00  0.00     0.000 A 
ATOM     18  C   UNL     1     114.849 160.910 114.431  1.00  0.00     0.010 A 
ATOM     19  C   UNL     1     113.373 159.033 114.841  1.00  0.00     0.010 A 
ATOM     20  C   UNL     1     113.811 161.583 113.785  1.00  0.00     0.001 A 
ATOM     21  C   UNL     1     112.339 159.712 114.192  1.00  0.00     0.001 A 
ATOM     22  C   UNL     1     112.560 160.982 113.662  1.00  0.00     0.000 A 
ENDBRANCH  14  17
TORSDOF 1
ENDMDL
MODEL 6
REMARK VINA RESULT:    -7.194      1.988      2.699
REMARK INTER + INTRA:          -8.003
REMARK INTER:                  -7.527
REMARK INTRA:                  -0.476
REMARK UNBOUND:                -0.389
REMARK SMILES Cc1nnc2n1-c1ccc(Cl)cc1C(c1ccccc1)=NC2
REMARK SMILES IDX 1 1 2 2 3 3 4 4 5 5 6 6 7 7 8 8 9 9 10 10 11 11 12 12 13 13
REMARK SMILES IDX 14 14 21 15 22 16 15 17 16 18 20 19 17 20 19 21 18 22
REMARK H PARENT
ROOT
ATOM      1  C   UNL     1     113.554 157.244 115.167  1.00  0.00     0.090 C 
ATOM      2  C   UNL     1     114.453 158.253 114.558  1.00  0.00     0.134 A 
ATOM      3  N   UNL     1     114.229 159.551 114.577  1.00  0.00    -0.135 NA
ATOM      4  N   UNL     1     115.173 160.163 113.802  1.00  0.00    -0.133 NA
ATOM      5  C   UNL     1     115.967 159.230 113.321  1.00  0.00     0.159 A 
ATOM      6  N   UNL     1     115.585 157.996 113.799  1.00  0.00    -0.281 N 
ATOM      7  C   UNL     1     116.293 156.783 113.597  1.00  0.00     0.058 A 
ATOM      8  C   UNL     1     116.347 155.839 114.636  1.00  0.00     0.029 A 
ATOM      9  C   UNL     1     117.115 154.679 114.501  1.00  0.00     0.023 A 
ATOM     10  C   UNL     1     117.844 154.461 113.337  1.00  0.00     0.041 A 
ATOM     11  Cl  UNL     1     118.803 153.043 113.182  1.00  0.00    -0.084 Cl
ATOM     12  C   UNL     1     117.800 155.385 112.296  1.00  0.00     0.033 A 
ATOM     13  C   UNL     1     117.009 156.544 112.407  1.00  0.00     0.026 A 
ATOM     14  C   UNL     1     116.922 157.425 111.197  1.00  0.00     0.075 C 
ATOM     15  N   UNL     1     117.012 158.711 111.212  1.00  0.00    -0.276 NA
ATOM     16  C   UNL     1     117.165 159.423 112.472  1.00  0.00     0.220 C 
ENDROOT
BRANCH  14  17
ATOM     17  C   UNL     1     116.714 156.779 109.858  1.00  0.00     0.000 A 
ATOM     18  C   UNL     1     117.793 156.696 108.969  1.00  0.00     0.010 A 
ATOM     19  C   UNL     1     115.458 156.290 109.475  1.00  0.00     0.010 A 
ATOM     20  C   UNL     1     117.624 156.102 107.718  1.00  0.00     0.001 A 
ATOM     21  C   UNL     1     115.296 155.696 108.221  1.00  0.00     0.001 A 
ATOM     22  C   UNL     1     116.378 155.598 107.347  1.00  0.00     0.000 A 
ENDBRANCH  14  17
TORSDOF 1
ENDMDL
MODEL 7
REMARK VINA RESULT:    -6.680      2.865      4.647
REMARK INTER + INTRA:          -7.459
REMARK INTER:                  -7.502
REMARK INTRA:                   0.044
REMARK UNBOUND:                -0.389
REMARK SMILES Cc1nnc2n1-c1ccc(Cl)cc1C(c1ccccc1)=NC2
REMARK SMILES IDX 1 1 2 2 3 3 4 4 5 5 6 6 7 7 8 8 9 9 10 10 11 11 12 12 13 13
REMARK SMILES IDX 14 14 21 15 22 16 15 17 16 18 20 19 17 20 19 21 18 22
REMARK H PARENT
ROOT
ATOM      1  C   UNL     1     111.125 159.715 113.862  1.00  0.00     0.090 C 
ATOM      2  C   UNL     1     112.179 160.756 113.853  1.00  0.00     0.134 A 
ATOM      3  N   UNL     1     111.975 162.013 113.515  1.00  0.00    -0.135 NA
ATOM      4  N   UNL     1     113.183 162.651 113.477  1.00  0.00    -0.133 NA
ATOM      5  C   UNL     1     114.112 161.776 113.797  1.00  0.00     0.159 A 
ATOM      6  N   UNL     1     113.532 160.561 114.088  1.00  0.00    -0.281 N 
ATOM      7  C   UNL     1     114.215 159.428 114.601  1.00  0.00     0.058 A 
ATOM      8  C   UNL     1     113.574 158.609 115.546  1.00  0.00     0.029 A 
ATOM      9  C   UNL     1     114.256 157.542 116.138  1.00  0.00     0.023 A 
ATOM     10  C   UNL     1     115.582 157.295 115.804  1.00  0.00     0.041 A 
ATOM     11  Cl  UNL     1     116.423 155.994 116.549  1.00  0.00    -0.084 Cl
ATOM     12  C   UNL     1     116.233 158.094 114.867  1.00  0.00     0.033 A 
ATOM     13  C   UNL     1     115.551 159.155 114.242  1.00  0.00     0.026 A 
ATOM     14  C   UNL     1     116.284 159.889 113.159  1.00  0.00     0.075 C 
ATOM     15  N   UNL     1     116.314 161.172 113.028  1.00  0.00    -0.276 NA
ATOM     16  C   UNL     1     115.565 162.023 113.940  1.00  0.00     0.220 C 
ENDROOT
BRANCH  14  17
ATOM     17  C   UNL     1     117.044 159.088 112.143  1.00  0.00     0.000 A 
ATOM     18  C   UNL     1     117.920 159.750 111.275  1.00  0.00     0.010 A 
ATOM     19  C   UNL     1     116.867 157.703 112.029  1.00  0.00     0.010 A 
ATOM     20  C   UNL     1     118.637 159.028 110.320  1.00  0.00     0.001 A 
ATOM     21  C   UNL     1     117.588 156.986 111.072  1.00  0.00     0.001 A 
ATOM     22  C   UNL     1     118.474 157.647 110.222  1.00  0.00     0.000 A 
ENDBRANCH  14  17
TORSDOF 1
ENDMDL
