MODEL 1
REMARK VINA RESULT:    -9.786      0.000      0.000
REMARK INTER + INTRA:         -11.041
REMARK INTER:                 -10.644
REMARK INTRA:                  -0.397
REMARK UNBOUND:                -0.397
REMARK SMILES CN1C(=O)C(O)N=C(c2ccccc2)c2cc(Cl)ccc21
REMARK SMILES IDX 1 1 2 2 3 3 4 4 5 5 7 6 8 7 15 8 16 9 17 10 18 11 19 12
REMARK SMILES IDX 20 13 21 14 6 15 9 17 10 18 14 19 11 20 13 21 12 22
REMARK H PARENT 6 16
ROOT
ATOM      1  C   UNL     1     116.374 160.629 112.527  1.00  0.00     0.153 C 
ATOM      2  N   UNL     1     117.339 159.790 111.826  1.00  0.00    -0.311 N 
ATOM      3  C   UNL     1     118.174 160.423 110.896  1.00  0.00     0.278 C 
ATOM      4  O   UNL     1     118.027 161.607 110.573  1.00  0.00    -0.269 OA
ATOM      5  C   UNL     1     119.348 159.581 110.317  1.00  0.00     0.323 C 
ATOM      6  N   UNL     1     118.766 158.660 109.354  1.00  0.00    -0.243 NA
ATOM      7  C   UNL     1     118.054 157.684 109.805  1.00  0.00     0.078 C 
ATOM      8  C   UNL     1     117.832 157.405 111.257  1.00  0.00     0.026 A 
ATOM      9  C   UNL     1     117.982 156.070 111.676  1.00  0.00     0.033 A 
ATOM     10  C   UNL     1     117.684 155.711 112.986  1.00  0.00     0.041 A 
ATOM     11  Cl  UNL     1     117.853 154.076 113.487  1.00  0.00    -0.084 Cl
ATOM     12  C   UNL     1     117.240 156.670 113.887  1.00  0.00     0.023 A 
ATOM     13  C   UNL     1     117.114 158.001 113.481  1.00  0.00     0.028 A 
ATOM     14  C   UNL     1     117.434 158.405 112.170  1.00  0.00     0.053 A 
ENDROOT
BRANCH   5  15
ATOM     15  O   UNL     1     120.320 160.430 109.728  1.00  0.00    -0.364 OA
ATOM     16  H   UNL     1     119.813 161.229 109.495  1.00  0.00     0.213 HD
ENDBRANCH   5  15
BRANCH   7  17
ATOM     17  C   UNL     1     117.418 156.779 108.795  1.00  0.00     0.000 A 
ATOM     18  C   UNL     1     118.183 156.327 107.712  1.00  0.00     0.010 A 
ATOM     19  C   UNL     1     116.072 156.403 108.899  1.00  0.00     0.010 A 
ATOM     20  C   UNL     1     117.615 155.483 106.757  1.00  0.00     0.001 A 
ATOM     21  C   UNL     1     115.509 155.558 107.940  1.00  0.00     0.001 A 
ATOM     22  C   UNL     1     116.280 155.097 106.873  1.00  0.00     0.000 A 
ENDBRANCH   7  17
TORSDOF 2
ENDMDL
MODEL 2
REMARK VINA RESULT:    -8.031      2.813      3.965
REMARK INTER + INTRA:          -9.132
REMARK INTER:                  -9.464
REMARK INTRA:                   0.332
REMARK UNBOUND:                -0.397
REMARK SMILES CN1C(=O)C(O)N=C(c2ccccc2)c2cc(Cl)ccc21
REMARK SMILES IDX 1 1 2 2 3 3 4 4 5 5 7 6 8 7 15 8 16 9 17 10 18 11 19 12
REMARK SMILES IDX 20 13 21 14 6 15 9 17 10 18 14 19 11 20 13 21 12 22
REMARK H PARENT 6 16
ROOT
ATOM      1  C   UNL     1     119.323 162.755 109.716  1.00  0.00     0.153 C 
ATOM      2  N   UNL     1     120.119 161.572 109.412  1.00  0.00    -0.311 N 
ATOM      3  C   UNL     1     121.386 161.785 108.853  1.00  0.00     0.278 C 
ATOM      4  O   UNL     1     121.775 162.904 108.503  1.00  0.00    -0.269 OA
ATOM      5  C   UNL     1     122.322 160.547 108.740  1.00  0.00     0.323 C 
ATOM      6  N   UNL     1     121.829 159.751 107.627  1.00  0.00    -0.243 NA
ATOM      7  C   UNL     1     120.716 159.117 107.784  1.00  0.00     0.078 C 
ATOM      8  C   UNL     1     119.928 159.104 109.054  1.00  0.00     0.026 A 
ATOM      9  C   UNL     1     119.456 157.853 109.494  1.00  0.00     0.033 A 
ATOM     10  C   UNL     1     118.622 157.771 110.603  1.00  0.00     0.041 A 
ATOM     11  Cl  UNL     1     118.036 156.243 111.126  1.00  0.00    -0.084 Cl
ATOM     12  C   UNL     1     118.253 158.924 111.283  1.00  0.00     0.023 A 
ATOM     13  C   UNL     1     118.740 160.166 110.864  1.00  0.00     0.028 A 
ATOM     14  C   UNL     1     119.609 160.282 109.761  1.00  0.00     0.053 A 
ENDROOT
BRANCH   5  15
ATOM     15  O   UNL     1     123.666 160.960 108.549  1.00  0.00    -0.364 OA
ATOM     16  H   UNL     1     124.151 160.120 108.458  1.00  0.00     0.213 HD
ENDBRANCH   5  15
BRANCH   7  17
ATOM     17  C   UNL     1     120.198 158.348 106.608  1.00  0.00     0.000 A 
ATOM     18  C   UNL     1     119.099 157.497 106.785  1.00  0.00     0.010 A 
ATOM     19  C   UNL     1     120.808 158.442 105.350  1.00  0.00     0.010 A 
ATOM     20  C   UNL     1     118.597 156.769 105.706  1.00  0.00     0.001 A 
ATOM     21  C   UNL     1     120.301 157.711 104.273  1.00  0.00     0.001 A 
ATOM     22  C   UNL     1     119.195 156.879 104.451  1.00  0.00     0.000 A 
ENDBRANCH   7  17
TORSDOF 2
ENDMDL
MODEL 3
REMARK VINA RESULT:    -7.972      1.869      4.834
REMARK INTER + INTRA:          -9.068
REMARK INTER:                  -8.893
REMARK INTRA:                  -0.175
REMARK UNBOUND:                -0.397
REMARK SMILES CN1C(=O)C(O)N=C(c2ccccc2)c2cc(Cl)ccc21
REMARK SMILES IDX 1 1 2 2 3 3 4 4 5 5 7 6 8 7 15 8 16 9 17 10 18 11 19 12
REMARK SMILES IDX 20 13 21 14 6 15 9 17 10 18 14 19 11 20 13 21 12 22
REMARK H PARENT 6 16
ROOT
ATOM      1  C   UNL     1     120.650 157.499 107.573  1.00  0.00     0.153 C 
ATOM      2  N   UNL     1     119.599 157.927 108.489  1.00  0.00    -0.311 N 
ATOM      3  C   UNL     1     119.862 159.056 109.275  1.00  0.00     0.278 C 
ATOM      4  O   UNL     1     120.972 159.598 109.304  1.00  0.00    -0.269 OA
ATOM      5  C   UNL     1     118.669 159.646 110.080  1.00  0.00     0.323 C 
ATOM      6  N   UNL     1     118.448 158.758 111.211  1.00  0.00    -0.243 NA
ATOM      7  C   UNL     1     117.945 157.593 110.975  1.00  0.00     0.078 C 
ATOM      8  C   UNL     1     117.522 157.118 109.622  1.00  0.00     0.026 A 
ATOM      9  C   UNL     1     116.267 156.487 109.536  1.00  0.00     0.033 A 
ATOM     10  C   UNL     1     115.851 155.919 108.337  1.00  0.00     0.041 A 
ATOM     11  Cl  UNL     1     114.324 155.136 108.242  1.00  0.00    -0.084 Cl
ATOM     12  C   UNL     1     116.673 155.973 107.219  1.00  0.00     0.023 A 
ATOM     13  C   UNL     1     117.909 156.620 107.295  1.00  0.00     0.028 A 
ATOM     14  C   UNL     1     118.350 157.231 108.485  1.00  0.00     0.053 A 
ENDROOT
BRANCH   5  15
ATOM     15  O   UNL     1     118.958 160.973 110.491  1.00  0.00    -0.364 OA
ATOM     16  H   UNL     1     119.761 160.873 111.033  1.00  0.00     0.213 HD
ENDBRANCH   5  15
BRANCH   7  17
ATOM     17  C   UNL     1     117.777 156.673 112.145  1.00  0.00     0.000 A 
ATOM     18  C   UNL     1     117.633 157.222 113.425  1.00  0.00     0.010 A 
ATOM     19  C   UNL     1     117.790 155.281 111.984  1.00  0.00     0.010 A 
ATOM     20  C   UNL     1     117.476 156.387 114.532  1.00  0.00     0.001 A 
ATOM     21  C   UNL     1     117.631 154.450 113.094  1.00  0.00     0.001 A 
ATOM     22  C   UNL     1     117.471 155.002 114.365  1.00  0.00     0.000 A 
ENDBRANCH   7  17
TORSDOF 2
ENDMDL
MODEL 4
REMARK VINA RESULT:    -7.165      3.320      4.915
REMARK INTER + INTRA:          -8.190
REMARK INTER:                  -8.261
REMARK INTRA:                   0.071
REMARK UNBOUND:                -0.397
REMARK SMILES CN1C(=O)C(O)N=C(c2ccccc2)c2cc(Cl)ccc21
REMARK SMILES IDX 1 1 2 2 3 3 4 4 5 5 7 6 8 7 15 8 16 9 17 10 18 11 19 12
REMARK SMILES IDX 20 13 21 14 6 15 9 17 10 18 14 19 11 20 13 21 12 22
REMARK H PARENT 6 16
ROOT
ATOM      1  C   UNL     1     117.817 155.812 112.946  1.00  0.00     0.153 C 
ATOM      2  N   UNL     1     117.611 156.484 111.668  1.00  0.00    -0.311 N 
ATOM      3  C   UNL     1     117.469 155.669 110.537  1.00  0.00     0.278 C 
ATOM      4  O   UNL     1     117.640 154.445 110.577  1.00  0.00    -0.269 OA
ATOM      5  C   UNL     1     117.025 156.366 109.219  1.00  0.00     0.323 C 
ATOM      6  N   UNL     1     118.187 157.079 108.712  1.00  0.00    -0.243 NA
ATOM      7  C   UNL     1     118.574 158.133 109.348  1.00  0.00     0.078 C 
ATOM      8  C   UNL     1     117.874 158.700 110.540  1.00  0.00     0.026 A 
ATOM      9  C   UNL     1     117.659 160.091 110.547  1.00  0.00     0.033 A 
ATOM     10  C   UNL     1     117.116 160.709 111.667  1.00  0.00     0.041 A 
ATOM     11  Cl  UNL     1     116.872 162.410 111.676  1.00  0.00    -0.084 Cl
ATOM     12  C   UNL     1     116.782 159.956 112.785  1.00  0.00     0.023 A 
ATOM     13  C   UNL     1     116.970 158.571 112.773  1.00  0.00     0.028 A 
ATOM     14  C   UNL     1     117.492 157.909 111.644  1.00  0.00     0.053 A 
ENDROOT
BRANCH   5  15
ATOM     15  O   UNL     1     116.538 155.408 108.293  1.00  0.00    -0.364 OA
ATOM     16  H   UNL     1     116.907 154.567 108.621  1.00  0.00     0.213 HD
ENDBRANCH   5  15
BRANCH   7  17
ATOM     17  C   UNL     1     119.805 158.821 108.842  1.00  0.00     0.000 A 
ATOM     18  C   UNL     1     120.382 158.385 107.643  1.00  0.00     0.010 A 
ATOM     19  C   UNL     1     120.400 159.867 109.559  1.00  0.00     0.010 A 
ATOM     20  C   UNL     1     121.528 159.009 107.150  1.00  0.00     0.001 A 
ATOM     21  C   UNL     1     121.547 160.489 109.061  1.00  0.00     0.001 A 
ATOM     22  C   UNL     1     122.108 160.062 107.857  1.00  0.00     0.000 A 
ENDBRANCH   7  17
TORSDOF 2
ENDMDL
MODEL 5
REMARK VINA RESULT:    -7.138      4.327      5.768
REMARK INTER + INTRA:          -8.161
REMARK INTER:                  -8.461
REMARK INTRA:                   0.300
REMARK UNBOUND:                -0.397
REMARK SMILES CN1C(=O)C(O)N=C(c2ccccc2)c2cc(Cl)ccc21
REMARK SMILES IDX 1 1 2 2 3 3 4 4 5 5 7 6 8 7 15 8 16 9 17 10 18 11 19 12
REMARK SMILES IDX 20 13 21 14 6 15 9 17 10 18 14 19 11 20 13 21 12 22
REMARK H PARENT 6 16
ROOT
ATOM      1  C   UNL     1     116.692 157.222 117.274  1.00  0.00     0.153 C 
ATOM      2  N   UNL     1     116.185 157.297 115.909  1.00  0.00    -0.311 N 
ATOM      3  C   UNL     1     116.042 156.087 115.217  1.00  0.00     0.278 C 
ATOM      4  O   UNL     1     116.447 155.012 115.673  1.00  0.00    -0.269 OA
ATOM      5  C   UNL     1     115.293 156.140 113.854  1.00  0.00     0.323 C 
ATOM      6  N   UNL     1     116.214 156.725 112.893  1.00  0.00    -0.243 NA
ATOM      7  C   UNL     1     116.480 157.983 112.998  1.00  0.00     0.078 C 
ATOM      8  C   UNL     1     115.860 158.892 114.011  1.00  0.00     0.026 A 
ATOM      9  C   UNL     1     115.388 160.132 113.544  1.00  0.00     0.033 A 
ATOM     10  C   UNL     1     114.900 161.077 114.439  1.00  0.00     0.041 A 
ATOM     11  Cl  UNL     1     114.340 162.597 113.864  1.00  0.00    -0.084 Cl
ATOM     12  C   UNL     1     114.876 160.799 115.800  1.00  0.00     0.023 A 
ATOM     13  C   UNL     1     115.320 159.558 116.265  1.00  0.00     0.028 A 
ATOM     14  C   UNL     1     115.794 158.568 115.383  1.00  0.00     0.053 A 
ENDROOT
BRANCH   5  15
ATOM     15  O   UNL     1     114.872 154.841 113.471  1.00  0.00    -0.364 OA
ATOM     16  H   UNL     1     114.534 154.969 112.566  1.00  0.00     0.213 HD
ENDBRANCH   5  15
BRANCH   7  17
ATOM     17  C   UNL     1     117.474 158.554 112.034  1.00  0.00     0.000 A 
ATOM     18  C   UNL     1     118.392 157.694 111.418  1.00  0.00     0.010 A 
ATOM     19  C   UNL     1     117.517 159.927 111.762  1.00  0.00     0.010 A 
ATOM     20  C   UNL     1     119.329 158.201 110.516  1.00  0.00     0.001 A 
ATOM     21  C   UNL     1     118.456 160.429 110.857  1.00  0.00     0.001 A 
ATOM     22  C   UNL     1     119.357 159.566 110.233  1.00  0.00     0.000 A 
ENDBRANCH   7  17
TORSDOF 2
ENDMDL
MODEL 6
REMARK VINA RESULT:    -6.959      4.759      6.870
REMARK INTER + INTRA:          -7.967
REMARK INTER:                  -7.528
REMARK INTRA:                  -0.439
REMARK UNBOUND:                -0.397
REMARK SMILES CN1C(=O)C(O)N=C(c2ccccc2)c2cc(Cl)ccc21
REMARK SMILES IDX 1 1 2 2 3 3 4 4 5 5 7 6 8 7 15 8 16 9 17 10 18 11 19 12
REMARK SMILES IDX 20 13 21 14 6 15 9 17 10 18 14 19 11 20 13 21 12 22
REMARK H PARENT 6 16
ROOT
ATOM      1  C   UNL     1     116.134 154.894 117.530  1.00  0.00     0.153 C 
ATOM      2  N   UNL     1     116.487 156.204 116.997  1.00  0.00    -0.311 N 
ATOM      3  C   UNL     1     116.717 157.228 117.925  1.00  0.00     0.278 C 
ATOM      4  O   UNL     1     116.507 157.083 119.135  1.00  0.00    -0.269 OA
ATOM      5  C   UNL     1     117.312 158.556 117.375  1.00  0.00     0.323 C 
ATOM      6  N   UNL     1     116.228 159.248 116.696  1.00  0.00    -0.243 NA
ATOM      7  C   UNL     1     115.810 158.764 115.575  1.00  0.00     0.078 C 
ATOM      8  C   UNL     1     116.404 157.568 114.902  1.00  0.00     0.026 A 
ATOM      9  C   UNL     1     116.658 157.678 113.522  1.00  0.00     0.033 A 
ATOM     10  C   UNL     1     117.104 156.576 112.803  1.00  0.00     0.041 A 
ATOM     11  Cl  UNL     1     117.396 156.712 111.116  1.00  0.00    -0.084 Cl
ATOM     12  C   UNL     1     117.302 155.360 113.445  1.00  0.00     0.023 A 
ATOM     13  C   UNL     1     117.075 155.253 114.820  1.00  0.00     0.028 A 
ATOM     14  C   UNL     1     116.650 156.358 115.584  1.00  0.00     0.053 A 
ENDROOT
BRANCH   5  15
ATOM     15  O   UNL     1     117.860 159.327 118.433  1.00  0.00    -0.364 OA
ATOM     16  H   UNL     1     118.819 159.173 118.352  1.00  0.00     0.213 HD
ENDBRANCH   5  15
BRANCH   7  17
ATOM     17  C   UNL     1     114.657 159.460 114.919  1.00  0.00     0.000 A 
ATOM     18  C   UNL     1     114.895 160.642 114.207  1.00  0.00     0.010 A 
ATOM     19  C   UNL     1     113.351 158.966 115.029  1.00  0.00     0.010 A 
ATOM     20  C   UNL     1     113.838 161.310 113.587  1.00  0.00     0.001 A 
ATOM     21  C   UNL     1     112.297 159.637 114.405  1.00  0.00     0.001 A 
ATOM     22  C   UNL     1     112.542 160.805 113.683  1.00  0.00     0.000 A 
ENDBRANCH   7  17
TORSDOF 2
ENDMDL
MODEL 7
REMARK VINA RESULT:    -6.925      4.055      5.667
REMARK INTER + INTRA:          -7.930
REMARK INTER:                  -7.501
REMARK INTRA:                  -0.429
REMARK UNBOUND:                -0.397
REMARK SMILES CN1C(=O)C(O)N=C(c2ccccc2)c2cc(Cl)ccc21
REMARK SMILES IDX 1 1 2 2 3 3 4 4 5 5 7 6 8 7 15 8 16 9 17 10 18 11 19 12
REMARK SMILES IDX 20 13 21 14 6 15 9 17 10 18 14 19 11 20 13 21 12 22
REMARK H PARENT 6 16
ROOT
ATOM      1  C   UNL     1     113.845 160.085 117.223  1.00  0.00     0.153 C 
ATOM      2  N   UNL     1     114.876 159.127 116.843  1.00  0.00    -0.311 N 
ATOM      3  C   UNL     1     116.164 159.345 117.350  1.00  0.00     0.278 C 
ATOM      4  O   UNL     1     116.463 160.365 117.980  1.00  0.00    -0.269 OA
ATOM      5  C   UNL     1     117.206 158.210 117.135  1.00  0.00     0.323 C 
ATOM      6  N   UNL     1     117.611 158.273 115.740  1.00  0.00    -0.243 NA
ATOM      7  C   UNL     1     116.758 157.901 114.846  1.00  0.00     0.078 C 
ATOM      8  C   UNL     1     115.400 157.358 115.154  1.00  0.00     0.026 A 
ATOM      9  C   UNL     1     115.008 156.200 114.458  1.00  0.00     0.033 A 
ATOM     10  C   UNL     1     113.720 155.698 114.605  1.00  0.00     0.041 A 
ATOM     11  Cl  UNL     1     113.242 154.292 113.741  1.00  0.00    -0.084 Cl
ATOM     12  C   UNL     1     112.814 156.338 115.441  1.00  0.00     0.023 A 
ATOM     13  C   UNL     1     113.208 157.475 116.153  1.00  0.00     0.028 A 
ATOM     14  C   UNL     1     114.513 157.994 116.049  1.00  0.00     0.053 A 
ENDROOT
BRANCH   5  15
ATOM     15  O   UNL     1     118.304 158.373 118.020  1.00  0.00    -0.364 OA
ATOM     16  H   UNL     1     117.985 159.037 118.658  1.00  0.00     0.213 HD
ENDBRANCH   5  15
BRANCH   7  17
ATOM     17  C   UNL     1     117.175 158.026 113.412  1.00  0.00     0.000 A 
ATOM     18  C   UNL     1     116.743 159.135 112.674  1.00  0.00     0.010 A 
ATOM     19  C   UNL     1     117.958 157.043 112.794  1.00  0.00     0.010 A 
ATOM     20  C   UNL     1     117.117 159.274 111.337  1.00  0.00     0.001 A 
ATOM     21  C   UNL     1     118.330 157.187 111.456  1.00  0.00     0.001 A 
ATOM     22  C   UNL     1     117.912 158.303 110.730  1.00  0.00     0.000 A 
ENDBRANCH   7  17
TORSDOF 2
ENDMDL
MODEL 8
REMARK VINA RESULT:    -6.707      4.892      6.542
REMARK INTER + INTRA:          -7.692
REMARK INTER:                  -7.222
REMARK INTRA:                  -0.470
REMARK UNBOUND:                -0.397
REMARK SMILES CN1C(=O)C(O)N=C(c2ccccc2)c2cc(Cl)ccc21
REMARK SMILES IDX 1 1 2 2 3 3 4 4 5 5 7 6 8 7 15 8 16 9 17 10 18 11 19 12
REMARK SMILES IDX 20 13 21 14 6 15 9 17 10 18 14 19 11 20 13 21 12 22
REMARK H PARENT 6 16
ROOT
ATOM      1  C   UNL     1     117.047 157.021 118.742  1.00  0.00     0.153 C 
ATOM      2  N   UNL     1     116.441 156.396 117.572  1.00  0.00    -0.311 N 
ATOM      3  C   UNL     1     116.678 155.027 117.389  1.00  0.00     0.278 C 
ATOM      4  O   UNL     1     117.465 154.391 118.099  1.00  0.00    -0.269 OA
ATOM      5  C   UNL     1     115.854 154.313 116.279  1.00  0.00     0.323 C 
ATOM      6  N   UNL     1     116.438 154.709 115.007  1.00  0.00    -0.243 NA
ATOM      7  C   UNL     1     116.255 155.923 114.610  1.00  0.00     0.078 C 
ATOM      8  C   UNL     1     115.436 156.934 115.346  1.00  0.00     0.026 A 
ATOM      9  C   UNL     1     114.527 157.690 114.584  1.00  0.00     0.033 A 
ATOM     10  C   UNL     1     113.810 158.725 115.174  1.00  0.00     0.041 A 
ATOM     11  Cl  UNL     1     112.713 159.655 114.233  1.00  0.00    -0.084 Cl
ATOM     12  C   UNL     1     113.989 159.017 116.520  1.00  0.00     0.023 A 
ATOM     13  C   UNL     1     114.872 158.252 117.286  1.00  0.00     0.028 A 
ATOM     14  C   UNL     1     115.593 157.178 116.727  1.00  0.00     0.053 A 
ENDROOT
BRANCH   5  15
ATOM     15  O   UNL     1     115.885 152.907 116.468  1.00  0.00    -0.364 OA
ATOM     16  H   UNL     1     116.036 152.560 115.569  1.00  0.00     0.213 HD
ENDBRANCH   5  15
BRANCH   7  17
ATOM     17  C   UNL     1     116.910 156.327 113.325  1.00  0.00     0.000 A 
ATOM     18  C   UNL     1     116.661 155.574 112.171  1.00  0.00     0.010 A 
ATOM     19  C   UNL     1     117.784 157.420 113.266  1.00  0.00     0.010 A 
ATOM     20  C   UNL     1     117.259 155.928 110.961  1.00  0.00     0.001 A 
ATOM     21  C   UNL     1     118.379 157.772 112.052  1.00  0.00     0.001 A 
ATOM     22  C   UNL     1     118.114 157.029 110.902  1.00  0.00     0.000 A 
ENDBRANCH   7  17
TORSDOF 2
ENDMDL
MODEL 9
REMARK VINA RESULT:    -6.430      4.642      6.958
REMARK INTER + INTRA:          -7.391
REMARK INTER:                  -7.069
REMARK INTRA:                  -0.322
REMARK UNBOUND:                -0.397
REMARK SMILES CN1C(=O)C(O)N=C(c2ccccc2)c2cc(Cl)ccc21
REMARK SMILES IDX 1 1 2 2 3 3 4 4 5 5 7 6 8 7 15 8 16 9 17 10 18 11 19 12
REMARK SMILES IDX 20 13 21 14 6 15 9 17 10 18 14 19 11 20 13 21 12 22
REMARK H PARENT 6 16
ROOT
ATOM      1  C   UNL     1     115.779 154.442 115.386  1.00  0.00     0.153 C 
ATOM      2  N   UNL     1     116.130 155.845 115.568  1.00  0.00    -0.311 N 
ATOM      3  C   UNL     1     116.060 156.354 116.871  1.00  0.00     0.278 C 
ATOM      4  O   UNL     1     115.598 155.700 117.813  1.00  0.00    -0.269 OA
ATOM      5  C   UNL     1     116.647 157.776 117.104  1.00  0.00     0.323 C 
ATOM      6  N   UNL     1     115.688 158.719 116.552  1.00  0.00    -0.243 NA
ATOM      7  C   UNL     1     115.573 158.783 115.268  1.00  0.00     0.078 C 
ATOM      8  C   UNL     1     116.401 157.990 114.310  1.00  0.00     0.026 A 
ATOM      9  C   UNL     1     116.947 158.686 113.215  1.00  0.00     0.033 A 
ATOM     10  C   UNL     1     117.634 157.999 112.221  1.00  0.00     0.041 A 
ATOM     11  Cl  UNL     1     118.283 158.854 110.879  1.00  0.00    -0.084 Cl
ATOM     12  C   UNL     1     117.786 156.622 112.305  1.00  0.00     0.023 A 
ATOM     13  C   UNL     1     117.268 155.930 113.403  1.00  0.00     0.028 A 
ATOM     14  C   UNL     1     116.591 156.597 114.442  1.00  0.00     0.053 A 
ENDROOT
BRANCH   5  15
ATOM     15  O   UNL     1     116.878 157.994 118.487  1.00  0.00    -0.364 OA
ATOM     16  H   UNL     1     117.608 158.640 118.496  1.00  0.00     0.213 HD
ENDBRANCH   5  15
BRANCH   7  17
ATOM     17  C   UNL     1     114.542 159.721 114.721  1.00  0.00     0.000 A 
ATOM     18  C   UNL     1     113.234 159.256 114.532  1.00  0.00     0.010 A 
ATOM     19  C   UNL     1     114.868 161.038 114.371  1.00  0.00     0.010 A 
ATOM     20  C   UNL     1     112.255 160.109 114.023  1.00  0.00     0.001 A 
ATOM     21  C   UNL     1     113.883 161.888 113.863  1.00  0.00     0.001 A 
ATOM     22  C   UNL     1     112.578 161.425 113.693  1.00  0.00     0.000 A 
ENDBRANCH   7  17
TORSDOF 2
ENDMDL
