MODEL 1
REMARK VINA RESULT:    -8.524      0.000      0.000
REMARK INTER + INTRA:          -9.593
REMARK INTER:                  -9.271
REMARK INTRA:                  -0.322
REMARK UNBOUND:                -0.322
REMARK SMILES O=C1Nc2ccc(Cl)cc2C(c2ccccc2Cl)=NC1O
REMARK SMILES IDX 1 1 2 2 3 3 4 4 5 5 6 6 7 7 8 8 9 9 10 10 11 11 19 12 20 13
REMARK SMILES IDX 21 15 12 17 13 18 17 19 14 20 16 21 15 22 18 23
REMARK H PARENT 3 14 21 16
ROOT
ATOM      1  O   UNL     1     115.609 155.703 113.950  1.00  0.00    -0.269 OA
ATOM      2  C   UNL     1     116.341 156.492 113.346  1.00  0.00     0.276 C 
ATOM      3  N   UNL     1     115.879 157.756 113.082  1.00  0.00    -0.321 N 
ATOM      4  C   UNL     1     116.548 158.788 112.409  1.00  0.00     0.050 A 
ATOM      5  C   UNL     1     116.130 160.092 112.721  1.00  0.00     0.028 A 
ATOM      6  C   UNL     1     116.765 161.200 112.157  1.00  0.00     0.023 A 
ATOM      7  C   UNL     1     117.813 161.012 111.265  1.00  0.00     0.041 A 
ATOM      8  Cl  UNL     1     118.601 162.375 110.574  1.00  0.00    -0.084 Cl
ATOM      9  C   UNL     1     118.212 159.727 110.908  1.00  0.00     0.033 A 
ATOM     10  C   UNL     1     117.569 158.605 111.460  1.00  0.00     0.026 A 
ATOM     11  C   UNL     1     117.888 157.261 110.892  1.00  0.00     0.079 C 
ATOM     12  N   UNL     1     117.957 156.150 111.538  1.00  0.00    -0.243 NA
ATOM     13  C   UNL     1     117.806 156.154 112.986  1.00  0.00     0.323 C 
ATOM     14  H   UNL     1     114.992 157.952 113.529  1.00  0.00     0.170 HD
ENDROOT
BRANCH  13  15
ATOM     15  O   UNL     1     118.733 156.961 113.700  1.00  0.00    -0.364 OA
ATOM     16  H   UNL     1     118.275 157.801 113.867  1.00  0.00     0.213 HD
ENDBRANCH  13  15
BRANCH  11  17
ATOM     17  C   UNL     1     118.082 157.172 109.420  1.00  0.00     0.019 A 
ATOM     18  C   UNL     1     119.345 157.498 108.906  1.00  0.00     0.012 A 
ATOM     19  C   UNL     1     117.044 156.800 108.559  1.00  0.00     0.050 A 
ATOM     20  C   UNL     1     119.569 157.443 107.532  1.00  0.00     0.001 A 
ATOM     21  C   UNL     1     117.278 156.747 107.183  1.00  0.00     0.021 A 
ATOM     22  C   UNL     1     118.538 157.068 106.671  1.00  0.00     0.002 A 
ATOM     23  Cl  UNL     1     115.482 156.341 109.133  1.00  0.00    -0.084 Cl
ENDBRANCH  11  17
TORSDOF 2
ENDMDL
MODEL 2
REMARK VINA RESULT:    -8.319      1.530      2.001
REMARK INTER + INTRA:          -9.371
REMARK INTER:                  -9.209
REMARK INTRA:                  -0.161
REMARK UNBOUND:                -0.322
REMARK SMILES O=C1Nc2ccc(Cl)cc2C(c2ccccc2Cl)=NC1O
REMARK SMILES IDX 1 1 2 2 3 3 4 4 5 5 6 6 7 7 8 8 9 9 10 10 11 11 19 12 20 13
REMARK SMILES IDX 21 15 12 17 13 18 17 19 14 20 16 21 15 22 18 23
REMARK H PARENT 3 14 21 16
ROOT
ATOM      1  O   UNL     1     115.808 154.883 115.028  1.00  0.00    -0.269 OA
ATOM      2  C   UNL     1     116.297 155.806 114.372  1.00  0.00     0.276 C 
ATOM      3  N   UNL     1     115.589 156.974 114.241  1.00  0.00    -0.321 N 
ATOM      4  C   UNL     1     115.965 158.127 113.538  1.00  0.00     0.050 A 
ATOM      5  C   UNL     1     115.377 159.326 113.972  1.00  0.00     0.028 A 
ATOM      6  C   UNL     1     115.721 160.545 113.385  1.00  0.00     0.023 A 
ATOM      7  C   UNL     1     116.646 160.572 112.349  1.00  0.00     0.041 A 
ATOM      8  Cl  UNL     1     117.077 162.073 111.629  1.00  0.00    -0.084 Cl
ATOM      9  C   UNL     1     117.206 159.389 111.873  1.00  0.00     0.033 A 
ATOM     10  C   UNL     1     116.853 158.156 112.449  1.00  0.00     0.026 A 
ATOM     11  C   UNL     1     117.316 156.907 111.772  1.00  0.00     0.079 C 
ATOM     12  N   UNL     1     117.669 155.809 112.344  1.00  0.00    -0.243 NA
ATOM     13  C   UNL     1     117.731 155.747 113.797  1.00  0.00     0.323 C 
ATOM     14  H   UNL     1     114.756 156.995 114.815  1.00  0.00     0.170 HD
ENDROOT
BRANCH  13  15
ATOM     15  O   UNL     1     118.597 156.687 114.418  1.00  0.00    -0.364 OA
ATOM     16  H   UNL     1     119.077 156.189 115.100  1.00  0.00     0.213 HD
ENDBRANCH  13  15
BRANCH  11  17
ATOM     17  C   UNL     1     117.308 156.894 110.286  1.00  0.00     0.019 A 
ATOM     18  C   UNL     1     116.218 156.291 109.643  1.00  0.00     0.012 A 
ATOM     19  C   UNL     1     118.355 157.441 109.536  1.00  0.00     0.050 A 
ATOM     20  C   UNL     1     116.174 156.243 108.250  1.00  0.00     0.001 A 
ATOM     21  C   UNL     1     118.302 157.389 108.141  1.00  0.00     0.021 A 
ATOM     22  C   UNL     1     117.215 156.791 107.500  1.00  0.00     0.002 A 
ATOM     23  Cl  UNL     1     119.701 158.239 110.266  1.00  0.00    -0.084 Cl
ENDBRANCH  11  17
TORSDOF 2
ENDMDL
MODEL 3
REMARK VINA RESULT:    -7.776      2.986      5.183
REMARK INTER + INTRA:          -8.780
REMARK INTER:                  -9.312
REMARK INTRA:                   0.532
REMARK UNBOUND:                -0.322
REMARK SMILES O=C1Nc2ccc(Cl)cc2C(c2ccccc2Cl)=NC1O
REMARK SMILES IDX 1 1 2 2 3 3 4 4 5 5 6 6 7 7 8 8 9 9 10 10 11 11 19 12 20 13
REMARK SMILES IDX 21 15 12 17 13 18 17 19 14 20 16 21 15 22 18 23
REMARK H PARENT 3 14 21 16
ROOT
ATOM      1  O   UNL     1     118.156 157.631 112.832  1.00  0.00    -0.269 OA
ATOM      2  C   UNL     1     118.235 157.916 111.634  1.00  0.00     0.276 C 
ATOM      3  N   UNL     1     118.563 156.930 110.738  1.00  0.00    -0.321 N 
ATOM      4  C   UNL     1     118.708 157.051 109.349  1.00  0.00     0.050 A 
ATOM      5  C   UNL     1     118.511 155.874 108.609  1.00  0.00     0.028 A 
ATOM      6  C   UNL     1     118.572 155.887 107.215  1.00  0.00     0.023 A 
ATOM      7  C   UNL     1     118.845 157.076 106.549  1.00  0.00     0.041 A 
ATOM      8  Cl  UNL     1     118.914 157.097 104.831  1.00  0.00    -0.084 Cl
ATOM      9  C   UNL     1     119.089 158.244 107.267  1.00  0.00     0.033 A 
ATOM     10  C   UNL     1     119.044 158.237 108.671  1.00  0.00     0.026 A 
ATOM     11  C   UNL     1     119.514 159.455 109.397  1.00  0.00     0.079 C 
ATOM     12  N   UNL     1     119.036 159.930 110.493  1.00  0.00    -0.243 NA
ATOM     13  C   UNL     1     117.859 159.312 111.086  1.00  0.00     0.323 C 
ATOM     14  H   UNL     1     118.593 156.011 111.159  1.00  0.00     0.170 HD
ENDROOT
BRANCH  13  15
ATOM     15  O   UNL     1     116.703 159.271 110.261  1.00  0.00    -0.364 OA
ATOM     16  H   UNL     1     116.962 159.692 109.426  1.00  0.00     0.213 HD
ENDBRANCH  13  15
BRANCH  11  17
ATOM     17  C   UNL     1     120.699 160.162 108.842  1.00  0.00     0.019 A 
ATOM     18  C   UNL     1     121.641 159.403 108.133  1.00  0.00     0.012 A 
ATOM     19  C   UNL     1     120.897 161.534 109.032  1.00  0.00     0.050 A 
ATOM     20  C   UNL     1     122.775 160.021 107.608  1.00  0.00     0.001 A 
ATOM     21  C   UNL     1     122.036 162.145 108.502  1.00  0.00     0.021 A 
ATOM     22  C   UNL     1     122.973 161.389 107.792  1.00  0.00     0.002 A 
ATOM     23  Cl  UNL     1     119.752 162.532 109.854  1.00  0.00    -0.084 Cl
ENDBRANCH  11  17
TORSDOF 2
ENDMDL
MODEL 4
REMARK VINA RESULT:    -7.670      1.417      1.810
REMARK INTER + INTRA:          -8.665
REMARK INTER:                  -8.307
REMARK INTRA:                  -0.358
REMARK UNBOUND:                -0.322
REMARK SMILES O=C1Nc2ccc(Cl)cc2C(c2ccccc2Cl)=NC1O
REMARK SMILES IDX 1 1 2 2 3 3 4 4 5 5 6 6 7 7 8 8 9 9 10 10 11 11 19 12 20 13
REMARK SMILES IDX 21 15 12 17 13 18 17 19 14 20 16 21 15 22 18 23
REMARK H PARENT 3 14 21 16
ROOT
ATOM      1  O   UNL     1     115.366 155.318 115.203  1.00  0.00    -0.269 OA
ATOM      2  C   UNL     1     115.913 156.303 114.700  1.00  0.00     0.276 C 
ATOM      3  N   UNL     1     115.137 157.370 114.321  1.00  0.00    -0.321 N 
ATOM      4  C   UNL     1     115.563 158.569 113.731  1.00  0.00     0.050 A 
ATOM      5  C   UNL     1     114.723 159.677 113.927  1.00  0.00     0.028 A 
ATOM      6  C   UNL     1     115.074 160.936 113.436  1.00  0.00     0.023 A 
ATOM      7  C   UNL     1     116.262 161.093 112.733  1.00  0.00     0.041 A 
ATOM      8  Cl  UNL     1     116.701 162.643 112.133  1.00  0.00    -0.084 Cl
ATOM      9  C   UNL     1     117.086 159.997 112.489  1.00  0.00     0.033 A 
ATOM     10  C   UNL     1     116.733 158.723 112.967  1.00  0.00     0.026 A 
ATOM     11  C   UNL     1     117.535 157.551 112.505  1.00  0.00     0.079 C 
ATOM     12  N   UNL     1     117.831 156.504 113.191  1.00  0.00    -0.243 NA
ATOM     13  C   UNL     1     117.449 156.436 114.594  1.00  0.00     0.323 C 
ATOM     14  H   UNL     1     114.173 157.278 114.611  1.00  0.00     0.170 HD
ENDROOT
BRANCH  13  15
ATOM     15  O   UNL     1     117.955 157.475 115.421  1.00  0.00    -0.364 OA
ATOM     16  H   UNL     1     118.130 158.222 114.826  1.00  0.00     0.213 HD
ENDBRANCH  13  15
BRANCH  11  17
ATOM     17  C   UNL     1     117.987 157.552 111.088  1.00  0.00     0.019 A 
ATOM     18  C   UNL     1     119.179 158.225 110.782  1.00  0.00     0.012 A 
ATOM     19  C   UNL     1     117.249 156.927 110.077  1.00  0.00     0.050 A 
ATOM     20  C   UNL     1     119.634 158.264 109.465  1.00  0.00     0.001 A 
ATOM     21  C   UNL     1     117.714 156.971 108.760  1.00  0.00     0.021 A 
ATOM     22  C   UNL     1     118.903 157.638 108.456  1.00  0.00     0.002 A 
ATOM     23  Cl  UNL     1     115.801 156.043 110.396  1.00  0.00    -0.084 Cl
ENDBRANCH  11  17
TORSDOF 2
ENDMDL
MODEL 5
REMARK VINA RESULT:    -7.554      2.655      4.984
REMARK INTER + INTRA:          -8.538
REMARK INTER:                  -8.175
REMARK INTRA:                  -0.363
REMARK UNBOUND:                -0.322
REMARK SMILES O=C1Nc2ccc(Cl)cc2C(c2ccccc2Cl)=NC1O
REMARK SMILES IDX 1 1 2 2 3 3 4 4 5 5 6 6 7 7 8 8 9 9 10 10 11 11 19 12 20 13
REMARK SMILES IDX 21 15 12 17 13 18 17 19 14 20 16 21 15 22 18 23
REMARK H PARENT 3 14 21 16
ROOT
ATOM      1  O   UNL     1     119.100 155.697 108.071  1.00  0.00    -0.269 OA
ATOM      2  C   UNL     1     118.369 156.359 108.813  1.00  0.00     0.276 C 
ATOM      3  N   UNL     1     118.886 157.468 109.435  1.00  0.00    -0.321 N 
ATOM      4  C   UNL     1     118.228 158.341 110.312  1.00  0.00     0.050 A 
ATOM      5  C   UNL     1     118.752 159.641 110.388  1.00  0.00     0.028 A 
ATOM      6  C   UNL     1     118.143 160.613 111.183  1.00  0.00     0.023 A 
ATOM      7  C   UNL     1     117.012 160.287 111.921  1.00  0.00     0.041 A 
ATOM      8  Cl  UNL     1     116.254 161.483 112.897  1.00  0.00    -0.084 Cl
ATOM      9  C   UNL     1     116.503 158.991 111.896  1.00  0.00     0.033 A 
ATOM     10  C   UNL     1     117.120 158.003 111.109  1.00  0.00     0.026 A 
ATOM     11  C   UNL     1     116.668 156.588 111.275  1.00  0.00     0.079 C 
ATOM     12  N   UNL     1     116.585 155.694 110.353  1.00  0.00    -0.243 NA
ATOM     13  C   UNL     1     116.860 156.064 108.972  1.00  0.00     0.323 C 
ATOM     14  H   UNL     1     119.818 157.698 109.116  1.00  0.00     0.170 HD
ENDROOT
BRANCH  13  15
ATOM     15  O   UNL     1     116.051 157.103 108.439  1.00  0.00    -0.364 OA
ATOM     16  H   UNL     1     116.468 157.932 108.725  1.00  0.00     0.213 HD
ENDBRANCH  13  15
BRANCH  11  17
ATOM     17  C   UNL     1     116.343 156.135 112.653  1.00  0.00     0.019 A 
ATOM     18  C   UNL     1     115.061 155.616 112.886  1.00  0.00     0.012 A 
ATOM     19  C   UNL     1     117.264 156.236 113.701  1.00  0.00     0.050 A 
ATOM     20  C   UNL     1     114.707 155.192 114.166  1.00  0.00     0.001 A 
ATOM     21  C   UNL     1     116.900 155.808 114.981  1.00  0.00     0.021 A 
ATOM     22  C   UNL     1     115.624 155.288 115.212  1.00  0.00     0.002 A 
ATOM     23  Cl  UNL     1     118.872 156.821 113.470  1.00  0.00    -0.084 Cl
ENDBRANCH  11  17
TORSDOF 2
ENDMDL
MODEL 6
REMARK VINA RESULT:    -7.494      2.949      5.176
REMARK INTER + INTRA:          -8.474
REMARK INTER:                  -8.232
REMARK INTRA:                  -0.241
REMARK UNBOUND:                -0.322
REMARK SMILES O=C1Nc2ccc(Cl)cc2C(c2ccccc2Cl)=NC1O
REMARK SMILES IDX 1 1 2 2 3 3 4 4 5 5 6 6 7 7 8 8 9 9 10 10 11 11 19 12 20 13
REMARK SMILES IDX 21 15 12 17 13 18 17 19 14 20 16 21 15 22 18 23
REMARK H PARENT 3 14 21 16
ROOT
ATOM      1  O   UNL     1     115.311 154.454 107.253  1.00  0.00    -0.269 OA
ATOM      2  C   UNL     1     115.888 155.373 107.840  1.00  0.00     0.276 C 
ATOM      3  N   UNL     1     117.231 155.557 107.626  1.00  0.00    -0.321 N 
ATOM      4  C   UNL     1     118.063 156.531 108.196  1.00  0.00     0.050 A 
ATOM      5  C   UNL     1     119.209 156.864 107.457  1.00  0.00     0.028 A 
ATOM      6  C   UNL     1     120.079 157.862 107.898  1.00  0.00     0.023 A 
ATOM      7  C   UNL     1     119.816 158.526 109.090  1.00  0.00     0.041 A 
ATOM      8  Cl  UNL     1     120.882 159.761 109.633  1.00  0.00    -0.084 Cl
ATOM      9  C   UNL     1     118.709 158.179 109.860  1.00  0.00     0.033 A 
ATOM     10  C   UNL     1     117.836 157.164 109.430  1.00  0.00     0.026 A 
ATOM     11  C   UNL     1     116.789 156.687 110.384  1.00  0.00     0.079 C 
ATOM     12  N   UNL     1     115.598 156.302 110.087  1.00  0.00    -0.243 NA
ATOM     13  C   UNL     1     115.135 156.404 108.711  1.00  0.00     0.323 C 
ATOM     14  H   UNL     1     117.596 154.965 106.891  1.00  0.00     0.170 HD
ENDROOT
BRANCH  13  15
ATOM     15  O   UNL     1     115.166 157.708 108.146  1.00  0.00    -0.364 OA
ATOM     16  H   UNL     1     114.673 157.644 107.312  1.00  0.00     0.213 HD
ENDBRANCH  13  15
BRANCH  11  17
ATOM     17  C   UNL     1     117.173 156.576 111.816  1.00  0.00     0.019 A 
ATOM     18  C   UNL     1     117.574 155.319 112.290  1.00  0.00     0.012 A 
ATOM     19  C   UNL     1     117.118 157.673 112.683  1.00  0.00     0.050 A 
ATOM     20  C   UNL     1     117.929 155.165 113.629  1.00  0.00     0.001 A 
ATOM     21  C   UNL     1     117.476 157.509 114.023  1.00  0.00     0.021 A 
ATOM     22  C   UNL     1     117.880 156.257 114.495  1.00  0.00     0.002 A 
ATOM     23  Cl  UNL     1     116.679 159.256 112.150  1.00  0.00    -0.084 Cl
ENDBRANCH  11  17
TORSDOF 2
ENDMDL
MODEL 7
REMARK VINA RESULT:    -7.088      2.982      5.795
REMARK INTER + INTRA:          -8.032
REMARK INTER:                  -7.590
REMARK INTRA:                  -0.442
REMARK UNBOUND:                -0.322
REMARK SMILES O=C1Nc2ccc(Cl)cc2C(c2ccccc2Cl)=NC1O
REMARK SMILES IDX 1 1 2 2 3 3 4 4 5 5 6 6 7 7 8 8 9 9 10 10 11 11 19 12 20 13
REMARK SMILES IDX 21 15 12 17 13 18 17 19 14 20 16 21 15 22 18 23
REMARK H PARENT 3 14 21 16
ROOT
ATOM      1  O   UNL     1     117.807 153.713 113.804  1.00  0.00    -0.269 OA
ATOM      2  C   UNL     1     117.349 154.839 113.594  1.00  0.00     0.276 C 
ATOM      3  N   UNL     1     118.168 155.797 113.051  1.00  0.00    -0.321 N 
ATOM      4  C   UNL     1     117.843 157.126 112.744  1.00  0.00     0.050 A 
ATOM      5  C   UNL     1     118.622 157.730 111.744  1.00  0.00     0.028 A 
ATOM      6  C   UNL     1     118.351 159.030 111.315  1.00  0.00     0.023 A 
ATOM      7  C   UNL     1     117.308 159.742 111.893  1.00  0.00     0.041 A 
ATOM      8  Cl  UNL     1     116.967 161.342 111.362  1.00  0.00    -0.084 Cl
ATOM      9  C   UNL     1     116.553 159.178 112.918  1.00  0.00     0.033 A 
ATOM     10  C   UNL     1     116.829 157.874 113.367  1.00  0.00     0.026 A 
ATOM     11  C   UNL     1     116.135 157.393 114.600  1.00  0.00     0.079 C 
ATOM     12  N   UNL     1     115.732 156.195 114.837  1.00  0.00    -0.243 NA
ATOM     13  C   UNL     1     115.856 155.180 113.801  1.00  0.00     0.323 C 
ATOM     14  H   UNL     1     119.066 155.430 112.763  1.00  0.00     0.170 HD
ENDROOT
BRANCH  13  15
ATOM     15  O   UNL     1     115.197 155.468 112.575  1.00  0.00    -0.364 OA
ATOM     16  H   UNL     1     114.527 156.138 112.789  1.00  0.00     0.213 HD
ENDBRANCH  13  15
BRANCH  11  17
ATOM     17  C   UNL     1     115.946 158.375 115.701  1.00  0.00     0.019 A 
ATOM     18  C   UNL     1     116.949 158.464 116.677  1.00  0.00     0.012 A 
ATOM     19  C   UNL     1     114.801 159.174 115.790  1.00  0.00     0.050 A 
ATOM     20  C   UNL     1     116.808 159.359 117.736  1.00  0.00     0.001 A 
ATOM     21  C   UNL     1     114.669 160.069 116.854  1.00  0.00     0.021 A 
ATOM     22  C   UNL     1     115.670 160.161 117.825  1.00  0.00     0.002 A 
ATOM     23  Cl  UNL     1     113.555 159.146 114.596  1.00  0.00    -0.084 Cl
ENDBRANCH  11  17
TORSDOF 2
ENDMDL
MODEL 8
REMARK VINA RESULT:    -7.002      3.319      4.615
REMARK INTER + INTRA:          -7.939
REMARK INTER:                  -8.671
REMARK INTRA:                   0.733
REMARK UNBOUND:                -0.322
REMARK SMILES O=C1Nc2ccc(Cl)cc2C(c2ccccc2Cl)=NC1O
REMARK SMILES IDX 1 1 2 2 3 3 4 4 5 5 6 6 7 7 8 8 9 9 10 10 11 11 19 12 20 13
REMARK SMILES IDX 21 15 12 17 13 18 17 19 14 20 16 21 15 22 18 23
REMARK H PARENT 3 14 21 16
ROOT
ATOM      1  O   UNL     1     115.944 155.276 106.769  1.00  0.00    -0.269 OA
ATOM      2  C   UNL     1     116.653 155.558 107.739  1.00  0.00     0.276 C 
ATOM      3  N   UNL     1     116.050 155.939 108.912  1.00  0.00    -0.321 N 
ATOM      4  C   UNL     1     116.673 156.302 110.114  1.00  0.00     0.050 A 
ATOM      5  C   UNL     1     115.904 156.128 111.276  1.00  0.00     0.028 A 
ATOM      6  C   UNL     1     116.441 156.400 112.536  1.00  0.00     0.023 A 
ATOM      7  C   UNL     1     117.747 156.863 112.642  1.00  0.00     0.041 A 
ATOM      8  Cl  UNL     1     118.414 157.192 114.192  1.00  0.00    -0.084 Cl
ATOM      9  C   UNL     1     118.510 157.085 111.498  1.00  0.00     0.033 A 
ATOM     10  C   UNL     1     117.972 156.828 110.225  1.00  0.00     0.026 A 
ATOM     11  C   UNL     1     118.748 157.277 109.030  1.00  0.00     0.079 C 
ATOM     12  N   UNL     1     118.826 156.676 107.895  1.00  0.00    -0.243 NA
ATOM     13  C   UNL     1     118.188 155.379 107.726  1.00  0.00     0.323 C 
ATOM     14  H   UNL     1     115.044 155.835 108.889  1.00  0.00     0.170 HD
ENDROOT
BRANCH  13  15
ATOM     15  O   UNL     1     118.616 154.361 108.620  1.00  0.00    -0.364 OA
ATOM     16  H   UNL     1     119.571 154.498 108.736  1.00  0.00     0.213 HD
ENDBRANCH  13  15
BRANCH  11  17
ATOM     17  C   UNL     1     119.452 158.583 109.126  1.00  0.00     0.019 A 
ATOM     18  C   UNL     1     118.979 159.513 110.063  1.00  0.00     0.012 A 
ATOM     19  C   UNL     1     120.537 158.900 108.302  1.00  0.00     0.050 A 
ATOM     20  C   UNL     1     119.598 160.756 110.178  1.00  0.00     0.001 A 
ATOM     21  C   UNL     1     121.151 160.149 108.425  1.00  0.00     0.021 A 
ATOM     22  C   UNL     1     120.682 161.075 109.361  1.00  0.00     0.002 A 
ATOM     23  Cl  UNL     1     121.196 157.782 107.163  1.00  0.00    -0.084 Cl
ENDBRANCH  11  17
TORSDOF 2
ENDMDL
MODEL 9
REMARK VINA RESULT:    -6.813      4.032      5.399
REMARK INTER + INTRA:          -7.733
REMARK INTER:                  -7.145
REMARK INTRA:                  -0.588
REMARK UNBOUND:                -0.322
REMARK SMILES O=C1Nc2ccc(Cl)cc2C(c2ccccc2Cl)=NC1O
REMARK SMILES IDX 1 1 2 2 3 3 4 4 5 5 6 6 7 7 8 8 9 9 10 10 11 11 19 12 20 13
REMARK SMILES IDX 21 15 12 17 13 18 17 19 14 20 16 21 15 22 18 23
REMARK H PARENT 3 14 21 16
ROOT
ATOM      1  O   UNL     1     116.901 156.736 119.147  1.00  0.00    -0.269 OA
ATOM      2  C   UNL     1     116.430 157.379 118.205  1.00  0.00     0.276 C 
ATOM      3  N   UNL     1     115.100 157.233 117.901  1.00  0.00    -0.321 N 
ATOM      4  C   UNL     1     114.383 157.864 116.875  1.00  0.00     0.050 A 
ATOM      5  C   UNL     1     113.000 157.988 117.082  1.00  0.00     0.028 A 
ATOM      6  C   UNL     1     112.194 158.650 116.155  1.00  0.00     0.023 A 
ATOM      7  C   UNL     1     112.764 159.182 115.005  1.00  0.00     0.041 A 
ATOM      8  Cl  UNL     1     111.776 160.005 113.864  1.00  0.00    -0.084 Cl
ATOM      9  C   UNL     1     114.126 159.031 114.759  1.00  0.00     0.033 A 
ATOM     10  C   UNL     1     114.942 158.352 115.680  1.00  0.00     0.026 A 
ATOM     11  C   UNL     1     116.345 158.034 115.277  1.00  0.00     0.079 C 
ATOM     12  N   UNL     1     117.381 158.020 116.041  1.00  0.00    -0.243 NA
ATOM     13  C   UNL     1     117.250 158.436 117.430  1.00  0.00     0.323 C 
ATOM     14  H   UNL     1     114.600 156.678 118.583  1.00  0.00     0.170 HD
ENDROOT
BRANCH  13  15
ATOM     15  O   UNL     1     116.757 159.753 117.635  1.00  0.00    -0.364 OA
ATOM     16  H   UNL     1     116.292 159.989 116.816  1.00  0.00     0.213 HD
ENDBRANCH  13  15
BRANCH  11  17
ATOM     17  C   UNL     1     116.571 157.623 113.865  1.00  0.00     0.019 A 
ATOM     18  C   UNL     1     117.066 158.586 112.975  1.00  0.00     0.012 A 
ATOM     19  C   UNL     1     116.283 156.329 113.418  1.00  0.00     0.050 A 
ATOM     20  C   UNL     1     117.279 158.251 111.639  1.00  0.00     0.001 A 
ATOM     21  C   UNL     1     116.501 156.002 112.077  1.00  0.00     0.021 A 
ATOM     22  C   UNL     1     116.997 156.961 111.190  1.00  0.00     0.002 A 
ATOM     23  Cl  UNL     1     115.718 155.086 114.473  1.00  0.00    -0.084 Cl
ENDBRANCH  11  17
TORSDOF 2
ENDMDL
