MODEL 1
REMARK VINA RESULT:    -6.875      0.000      0.000
REMARK INTER + INTRA:          -8.373
REMARK INTER:                  -7.679
REMARK INTRA:                  -0.694
REMARK UNBOUND:                -0.694
REMARK SMILES O=C1CN=C(c2ccccc2Cl)c2cc([N+](=O)[O-])ccc2N1
REMARK SMILES IDX 1 1 2 2 3 3 4 4 5 5 13 6 14 7 15 8 19 9 20 10 21 11 22 12
REMARK SMILES IDX 6 14 7 15 11 16 8 17 10 18 9 19 12 20 16 21 17 22 18 23
REMARK H PARENT 22 13
ROOT
ATOM      1  O   UNL     1     138.103 101.287 134.062  1.00  0.00    -0.273 OA
ATOM      2  C   UNL     1     139.062 100.515 134.026  1.00  0.00     0.246 C 
ATOM      3  C   UNL     1     140.059 100.493 132.885  1.00  0.00     0.243 C 
ATOM      4  N   UNL     1     140.015  99.214 132.194  1.00  0.00    -0.274 NA
ATOM      5  C   UNL     1     140.446  98.156 132.787  1.00  0.00     0.076 C 
ATOM      6  C   UNL     1     140.945  98.068 134.194  1.00  0.00     0.031 A 
ATOM      7  C   UNL     1     141.987  97.162 134.471  1.00  0.00     0.098 A 
ATOM      8  C   UNL     1     142.368  96.911 135.795  1.00  0.00     0.270 A 
ATOM      9  C   UNL     1     141.712  97.544 136.853  1.00  0.00     0.088 A 
ATOM     10  C   UNL     1     140.688  98.453 136.577  1.00  0.00     0.034 A 
ATOM     11  C   UNL     1     140.320  98.750 135.255  1.00  0.00     0.051 A 
ATOM     12  N   UNL     1     139.314  99.716 135.109  1.00  0.00    -0.324 N 
ATOM     13  H   UNL     1     138.725  99.941 135.902  1.00  0.00     0.170 HD
ENDROOT
BRANCH   5  14
ATOM     14  C   UNL     1     140.381  96.897 132.000  1.00  0.00     0.019 A 
ATOM     15  C   UNL     1     141.316  96.719 130.972  1.00  0.00     0.012 A 
ATOM     16  C   UNL     1     139.435  95.903 132.277  1.00  0.00     0.050 A 
ATOM     17  C   UNL     1     141.298  95.548 130.215  1.00  0.00     0.001 A 
ATOM     18  C   UNL     1     139.424  94.734 131.514  1.00  0.00     0.021 A 
ATOM     19  C   UNL     1     140.353  94.558 130.484  1.00  0.00     0.002 A 
ATOM     20  Cl  UNL     1     138.232  96.090 133.501  1.00  0.00    -0.084 Cl
ENDBRANCH   5  14
BRANCH   8  21
ATOM     21  N   UNL     1     143.450  95.957 136.075  1.00  0.00     0.062 N 
ATOM     22  O   UNL     1     144.581  96.417 136.287  1.00  0.00    -0.258 OA
ATOM     23  O   UNL     1     143.164  94.753 136.088  1.00  0.00    -0.258 OA
ENDBRANCH   8  21
TORSDOF 2
ENDMDL
MODEL 2
REMARK VINA RESULT:    -6.813      2.643      4.714
REMARK INTER + INTRA:          -8.303
REMARK INTER:                  -7.882
REMARK INTRA:                  -0.421
REMARK UNBOUND:                -0.694
REMARK SMILES O=C1CN=C(c2ccccc2Cl)c2cc([N+](=O)[O-])ccc2N1
REMARK SMILES IDX 1 1 2 2 3 3 4 4 5 5 13 6 14 7 15 8 19 9 20 10 21 11 22 12
REMARK SMILES IDX 6 14 7 15 11 16 8 17 10 18 9 19 12 20 16 21 17 22 18 23
REMARK H PARENT 22 13
ROOT
ATOM      1  O   UNL     1     138.517 102.573 133.581  1.00  0.00    -0.273 OA
ATOM      2  C   UNL     1     138.632 101.354 133.709  1.00  0.00     0.246 C 
ATOM      3  C   UNL     1     138.328 100.630 135.005  1.00  0.00     0.243 C 
ATOM      4  N   UNL     1     139.530 100.004 135.534  1.00  0.00    -0.274 NA
ATOM      5  C   UNL     1     140.044  98.997 134.920  1.00  0.00     0.076 C 
ATOM      6  C   UNL     1     139.572  98.409 133.628  1.00  0.00     0.031 A 
ATOM      7  C   UNL     1     139.691  97.017 133.451  1.00  0.00     0.098 A 
ATOM      8  C   UNL     1     139.432  96.442 132.201  1.00  0.00     0.270 A 
ATOM      9  C   UNL     1     139.068  97.241 131.115  1.00  0.00     0.088 A 
ATOM     10  C   UNL     1     138.936  98.619 131.294  1.00  0.00     0.034 A 
ATOM     11  C   UNL     1     139.150  99.210 132.550  1.00  0.00     0.051 A 
ATOM     12  N   UNL     1     138.937 100.595 132.611  1.00  0.00    -0.324 N 
ATOM     13  H   UNL     1     138.921 101.132 131.753  1.00  0.00     0.170 HD
ENDROOT
BRANCH   5  14
ATOM     14  C   UNL     1     141.260  98.408 135.540  1.00  0.00     0.019 A 
ATOM     15  C   UNL     1     142.440  98.399 134.784  1.00  0.00     0.012 A 
ATOM     16  C   UNL     1     141.248  97.895 136.841  1.00  0.00     0.050 A 
ATOM     17  C   UNL     1     143.607  97.867 135.331  1.00  0.00     0.001 A 
ATOM     18  C   UNL     1     142.421  97.362 137.380  1.00  0.00     0.021 A 
ATOM     19  C   UNL     1     143.597  97.347 136.626  1.00  0.00     0.002 A 
ATOM     20  Cl  UNL     1     139.812  97.839 137.798  1.00  0.00    -0.084 Cl
ENDBRANCH   5  14
BRANCH   8  21
ATOM     21  N   UNL     1     139.568  94.989 132.023  1.00  0.00     0.062 N 
ATOM     22  O   UNL     1     139.001  94.474 131.050  1.00  0.00    -0.258 OA
ATOM     23  O   UNL     1     140.247  94.371 132.854  1.00  0.00    -0.258 OA
ENDBRANCH   8  21
TORSDOF 2
ENDMDL
MODEL 3
REMARK VINA RESULT:    -6.762      3.577      4.707
REMARK INTER + INTRA:          -8.247
REMARK INTER:                  -7.643
REMARK INTRA:                  -0.604
REMARK UNBOUND:                -0.694
REMARK SMILES O=C1CN=C(c2ccccc2Cl)c2cc([N+](=O)[O-])ccc2N1
REMARK SMILES IDX 1 1 2 2 3 3 4 4 5 5 13 6 14 7 15 8 19 9 20 10 21 11 22 12
REMARK SMILES IDX 6 14 7 15 11 16 8 17 10 18 9 19 12 20 16 21 17 22 18 23
REMARK H PARENT 22 13
ROOT
ATOM      1  O   UNL     1     141.698  99.316 133.457  1.00  0.00    -0.273 OA
ATOM      2  C   UNL     1     142.242  98.736 134.397  1.00  0.00     0.246 C 
ATOM      3  C   UNL     1     143.744  98.712 134.592  1.00  0.00     0.243 C 
ATOM      4  N   UNL     1     144.250  97.352 134.491  1.00  0.00    -0.274 NA
ATOM      5  C   UNL     1     143.968  96.499 135.413  1.00  0.00     0.076 C 
ATOM      6  C   UNL     1     143.083  96.730 136.596  1.00  0.00     0.031 A 
ATOM      7  C   UNL     1     143.409  96.085 137.804  1.00  0.00     0.098 A 
ATOM      8  C   UNL     1     142.522  96.124 138.885  1.00  0.00     0.270 A 
ATOM      9  C   UNL     1     141.298  96.790 138.775  1.00  0.00     0.088 A 
ATOM     10  C   UNL     1     140.980  97.441 137.581  1.00  0.00     0.034 A 
ATOM     11  C   UNL     1     141.876  97.449 136.499  1.00  0.00     0.051 A 
ATOM     12  N   UNL     1     141.462  98.181 135.376  1.00  0.00    -0.324 N 
ATOM     13  H   UNL     1     140.483  98.419 135.274  1.00  0.00     0.170 HD
ENDROOT
BRANCH   5  14
ATOM     14  C   UNL     1     144.541  95.139 135.238  1.00  0.00     0.019 A 
ATOM     15  C   UNL     1     145.805  94.886 135.790  1.00  0.00     0.012 A 
ATOM     16  C   UNL     1     143.846  94.127 134.567  1.00  0.00     0.050 A 
ATOM     17  C   UNL     1     146.376  93.621 135.659  1.00  0.00     0.001 A 
ATOM     18  C   UNL     1     144.426  92.864 134.440  1.00  0.00     0.021 A 
ATOM     19  C   UNL     1     145.689  92.611 134.984  1.00  0.00     0.002 A 
ATOM     20  Cl  UNL     1     142.308  94.396 133.830  1.00  0.00    -0.084 Cl
ENDBRANCH   5  14
BRANCH   8  21
ATOM     21  N   UNL     1     142.867  95.440 140.139  1.00  0.00     0.062 N 
ATOM     22  O   UNL     1     143.381  96.117 141.040  1.00  0.00    -0.258 OA
ATOM     23  O   UNL     1     142.618  94.230 140.220  1.00  0.00    -0.258 OA
ENDBRANCH   8  21
TORSDOF 2
ENDMDL
MODEL 4
REMARK VINA RESULT:    -6.723      3.715      5.730
REMARK INTER + INTRA:          -8.203
REMARK INTER:                  -7.501
REMARK INTRA:                  -0.703
REMARK UNBOUND:                -0.694
REMARK SMILES O=C1CN=C(c2ccccc2Cl)c2cc([N+](=O)[O-])ccc2N1
REMARK SMILES IDX 1 1 2 2 3 3 4 4 5 5 13 6 14 7 15 8 19 9 20 10 21 11 22 12
REMARK SMILES IDX 6 14 7 15 11 16 8 17 10 18 9 19 12 20 16 21 17 22 18 23
REMARK H PARENT 22 13
ROOT
ATOM      1  O   UNL     1     146.688  94.488 134.500  1.00  0.00    -0.273 OA
ATOM      2  C   UNL     1     145.643  94.615 135.139  1.00  0.00     0.246 C 
ATOM      3  C   UNL     1     144.359  93.904 134.767  1.00  0.00     0.243 C 
ATOM      4  N   UNL     1     143.328  94.867 134.408  1.00  0.00    -0.274 NA
ATOM      5  C   UNL     1     142.821  95.622 135.318  1.00  0.00     0.076 C 
ATOM      6  C   UNL     1     143.232  95.681 136.755  1.00  0.00     0.031 A 
ATOM      7  C   UNL     1     142.236  95.932 137.719  1.00  0.00     0.098 A 
ATOM      8  C   UNL     1     142.591  96.173 139.052  1.00  0.00     0.270 A 
ATOM      9  C   UNL     1     143.934  96.181 139.437  1.00  0.00     0.088 A 
ATOM     10  C   UNL     1     144.921  95.919 138.484  1.00  0.00     0.034 A 
ATOM     11  C   UNL     1     144.582  95.633 137.151  1.00  0.00     0.051 A 
ATOM     12  N   UNL     1     145.659  95.337 136.303  1.00  0.00    -0.324 N 
ATOM     13  H   UNL     1     146.596  95.602 136.581  1.00  0.00     0.170 HD
ENDROOT
BRANCH   5  14
ATOM     14  C   UNL     1     141.762  96.563 134.867  1.00  0.00     0.019 A 
ATOM     15  C   UNL     1     140.466  96.057 134.699  1.00  0.00     0.012 A 
ATOM     16  C   UNL     1     142.030  97.916 134.634  1.00  0.00     0.050 A 
ATOM     17  C   UNL     1     139.440  96.907 134.287  1.00  0.00     0.001 A 
ATOM     18  C   UNL     1     140.997  98.759 134.221  1.00  0.00     0.021 A 
ATOM     19  C   UNL     1     139.704  98.255 134.047  1.00  0.00     0.002 A 
ATOM     20  Cl  UNL     1     143.616  98.582 134.781  1.00  0.00    -0.084 Cl
ENDBRANCH   5  14
BRANCH   8  21
ATOM     21  N   UNL     1     141.546  96.443 140.049  1.00  0.00     0.062 N 
ATOM     22  O   UNL     1     141.795  96.167 141.231  1.00  0.00    -0.258 OA
ATOM     23  O   UNL     1     140.484  96.935 139.648  1.00  0.00    -0.258 OA
ENDBRANCH   8  21
TORSDOF 2
ENDMDL
MODEL 5
REMARK VINA RESULT:    -6.637      2.881      5.000
REMARK INTER + INTRA:          -8.107
REMARK INTER:                  -7.415
REMARK INTRA:                  -0.692
REMARK UNBOUND:                -0.694
REMARK SMILES O=C1CN=C(c2ccccc2Cl)c2cc([N+](=O)[O-])ccc2N1
REMARK SMILES IDX 1 1 2 2 3 3 4 4 5 5 13 6 14 7 15 8 19 9 20 10 21 11 22 12
REMARK SMILES IDX 6 14 7 15 11 16 8 17 10 18 9 19 12 20 16 21 17 22 18 23
REMARK H PARENT 22 13
ROOT
ATOM      1  O   UNL     1     140.198  97.630 138.052  1.00  0.00    -0.273 OA
ATOM      2  C   UNL     1     140.209  97.605 136.821  1.00  0.00     0.246 C 
ATOM      3  C   UNL     1     140.127  96.319 136.024  1.00  0.00     0.243 C 
ATOM      4  N   UNL     1     141.343  96.120 135.251  1.00  0.00    -0.274 NA
ATOM      5  C   UNL     1     141.598  96.895 134.255  1.00  0.00     0.076 C 
ATOM      6  C   UNL     1     140.790  98.076 133.820  1.00  0.00     0.031 A 
ATOM      7  C   UNL     1     140.718  98.358 132.442  1.00  0.00     0.098 A 
ATOM      8  C   UNL     1     140.127  99.546 131.997  1.00  0.00     0.270 A 
ATOM      9  C   UNL     1     139.616 100.470 132.912  1.00  0.00     0.088 A 
ATOM     10  C   UNL     1     139.674 100.184 134.277  1.00  0.00     0.034 A 
ATOM     11  C   UNL     1     140.225  98.978 134.742  1.00  0.00     0.051 A 
ATOM     12  N   UNL     1     140.179  98.787 136.130  1.00  0.00    -0.324 N 
ATOM     13  H   UNL     1     140.028  99.585 136.735  1.00  0.00     0.170 HD
ENDROOT
BRANCH   5  14
ATOM     14  C   UNL     1     142.852  96.608 133.511  1.00  0.00     0.019 A 
ATOM     15  C   UNL     1     142.877  95.478 132.683  1.00  0.00     0.012 A 
ATOM     16  C   UNL     1     143.972  97.441 133.607  1.00  0.00     0.050 A 
ATOM     17  C   UNL     1     144.029  95.176 131.958  1.00  0.00     0.001 A 
ATOM     18  C   UNL     1     145.122  97.131 132.878  1.00  0.00     0.021 A 
ATOM     19  C   UNL     1     145.151  96.001 132.056  1.00  0.00     0.002 A 
ATOM     20  Cl  UNL     1     144.011  98.820 134.645  1.00  0.00    -0.084 Cl
ENDBRANCH   5  14
BRANCH   8  21
ATOM     21  N   UNL     1     140.065  99.837 130.557  1.00  0.00     0.062 N 
ATOM     22  O   UNL     1     139.285  99.164 129.869  1.00  0.00    -0.258 OA
ATOM     23  O   UNL     1     140.791 100.740 130.123  1.00  0.00    -0.258 OA
ENDBRANCH   8  21
TORSDOF 2
ENDMDL
MODEL 6
REMARK VINA RESULT:    -6.554      3.452      5.493
REMARK INTER + INTRA:          -8.014
REMARK INTER:                  -7.320
REMARK INTRA:                  -0.694
REMARK UNBOUND:                -0.694
REMARK SMILES O=C1CN=C(c2ccccc2Cl)c2cc([N+](=O)[O-])ccc2N1
REMARK SMILES IDX 1 1 2 2 3 3 4 4 5 5 13 6 14 7 15 8 19 9 20 10 21 11 22 12
REMARK SMILES IDX 6 14 7 15 11 16 8 17 10 18 9 19 12 20 16 21 17 22 18 23
REMARK H PARENT 22 13
ROOT
ATOM      1  O   UNL     1     146.698  94.380 134.359  1.00  0.00    -0.273 OA
ATOM      2  C   UNL     1     145.640  94.563 134.963  1.00  0.00     0.246 C 
ATOM      3  C   UNL     1     144.318  93.987 134.500  1.00  0.00     0.243 C 
ATOM      4  N   UNL     1     143.389  95.053 134.156  1.00  0.00    -0.274 NA
ATOM      5  C   UNL     1     142.907  95.800 135.086  1.00  0.00     0.076 C 
ATOM      6  C   UNL     1     143.256  95.746 136.539  1.00  0.00     0.031 A 
ATOM      7  C   UNL     1     142.244  96.030 137.475  1.00  0.00     0.098 A 
ATOM      8  C   UNL     1     142.558  96.168 138.832  1.00  0.00     0.270 A 
ATOM      9  C   UNL     1     143.878  96.041 139.271  1.00  0.00     0.088 A 
ATOM     10  C   UNL     1     144.881  95.745 138.344  1.00  0.00     0.034 A 
ATOM     11  C   UNL     1     144.579  95.561 136.985  1.00  0.00     0.051 A 
ATOM     12  N   UNL     1     145.664  95.218 136.165  1.00  0.00    -0.324 N 
ATOM     13  H   UNL     1     146.607  95.386 136.496  1.00  0.00     0.170 HD
ENDROOT
BRANCH   5  14
ATOM     14  C   UNL     1     141.952  96.851 134.647  1.00  0.00     0.019 A 
ATOM     15  C   UNL     1     142.462  98.131 134.389  1.00  0.00     0.012 A 
ATOM     16  C   UNL     1     140.590  96.582 134.471  1.00  0.00     0.050 A 
ATOM     17  C   UNL     1     141.604  99.144 133.964  1.00  0.00     0.001 A 
ATOM     18  C   UNL     1     139.738  97.604 134.047  1.00  0.00     0.021 A 
ATOM     19  C   UNL     1     140.244  98.882 133.795  1.00  0.00     0.002 A 
ATOM     20  Cl  UNL     1     139.902  95.037 134.818  1.00  0.00    -0.084 Cl
ENDBRANCH   5  14
BRANCH   8  21
ATOM     21  N   UNL     1     141.496  96.474 139.801  1.00  0.00     0.062 N 
ATOM     22  O   UNL     1     141.685  96.151 140.981  1.00  0.00    -0.258 OA
ATOM     23  O   UNL     1     140.480  97.041 139.378  1.00  0.00    -0.258 OA
ENDBRANCH   8  21
TORSDOF 2
ENDMDL
MODEL 7
REMARK VINA RESULT:    -6.518      3.187      4.952
REMARK INTER + INTRA:          -7.974
REMARK INTER:                  -7.262
REMARK INTRA:                  -0.712
REMARK UNBOUND:                -0.694
REMARK SMILES O=C1CN=C(c2ccccc2Cl)c2cc([N+](=O)[O-])ccc2N1
REMARK SMILES IDX 1 1 2 2 3 3 4 4 5 5 13 6 14 7 15 8 19 9 20 10 21 11 22 12
REMARK SMILES IDX 6 14 7 15 11 16 8 17 10 18 9 19 12 20 16 21 17 22 18 23
REMARK H PARENT 22 13
ROOT
ATOM      1  O   UNL     1     142.294  95.145 139.481  1.00  0.00    -0.273 OA
ATOM      2  C   UNL     1     142.576  95.764 138.455  1.00  0.00     0.246 C 
ATOM      3  C   UNL     1     142.419  97.266 138.331  1.00  0.00     0.243 C 
ATOM      4  N   UNL     1     141.433  97.593 137.312  1.00  0.00    -0.274 NA
ATOM      5  C   UNL     1     141.702  97.370 136.073  1.00  0.00     0.076 C 
ATOM      6  C   UNL     1     142.936  96.718 135.535  1.00  0.00     0.031 A 
ATOM      7  C   UNL     1     143.431  97.161 134.294  1.00  0.00     0.098 A 
ATOM      8  C   UNL     1     144.473  96.469 133.664  1.00  0.00     0.270 A 
ATOM      9  C   UNL     1     145.021  95.326 134.251  1.00  0.00     0.088 A 
ATOM     10  C   UNL     1     144.539  94.895 135.489  1.00  0.00     0.034 A 
ATOM     11  C   UNL     1     143.524  95.600 136.156  1.00  0.00     0.051 A 
ATOM     12  N   UNL     1     143.164  95.095 137.414  1.00  0.00    -0.324 N 
ATOM     13  H   UNL     1     143.417  94.146 137.658  1.00  0.00     0.170 HD
ENDROOT
BRANCH   5  14
ATOM     14  C   UNL     1     140.645  97.751 135.099  1.00  0.00     0.019 A 
ATOM     15  C   UNL     1     140.498  99.111 134.794  1.00  0.00     0.012 A 
ATOM     16  C   UNL     1     139.831  96.795 134.484  1.00  0.00     0.050 A 
ATOM     17  C   UNL     1     139.527  99.513 133.878  1.00  0.00     0.001 A 
ATOM     18  C   UNL     1     138.861  97.206 133.568  1.00  0.00     0.021 A 
ATOM     19  C   UNL     1     138.708  98.562 133.267  1.00  0.00     0.002 A 
ATOM     20  Cl  UNL     1     139.940  95.113 134.857  1.00  0.00    -0.084 Cl
ENDBRANCH   5  14
BRANCH   8  21
ATOM     21  N   UNL     1     144.977  96.933 132.364  1.00  0.00     0.062 N 
ATOM     22  O   UNL     1     144.605  98.046 131.968  1.00  0.00    -0.258 OA
ATOM     23  O   UNL     1     145.746  96.185 131.747  1.00  0.00    -0.258 OA
ENDBRANCH   8  21
TORSDOF 2
ENDMDL
MODEL 8
REMARK VINA RESULT:    -6.465      2.228      2.544
REMARK INTER + INTRA:          -7.915
REMARK INTER:                  -7.204
REMARK INTRA:                  -0.711
REMARK UNBOUND:                -0.694
REMARK SMILES O=C1CN=C(c2ccccc2Cl)c2cc([N+](=O)[O-])ccc2N1
REMARK SMILES IDX 1 1 2 2 3 3 4 4 5 5 13 6 14 7 15 8 19 9 20 10 21 11 22 12
REMARK SMILES IDX 6 14 7 15 11 16 8 17 10 18 9 19 12 20 16 21 17 22 18 23
REMARK H PARENT 22 13
ROOT
ATOM      1  O   UNL     1     138.469  99.879 133.576  1.00  0.00    -0.273 OA
ATOM      2  C   UNL     1     139.552  99.392 133.902  1.00  0.00     0.246 C 
ATOM      3  C   UNL     1     140.797  99.510 133.048  1.00  0.00     0.243 C 
ATOM      4  N   UNL     1     141.236  98.197 132.601  1.00  0.00    -0.274 NA
ATOM      5  C   UNL     1     141.722  97.365 133.455  1.00  0.00     0.076 C 
ATOM      6  C   UNL     1     141.829  97.570 134.933  1.00  0.00     0.031 A 
ATOM      7  C   UNL     1     142.935  97.012 135.601  1.00  0.00     0.098 A 
ATOM      8  C   UNL     1     142.991  97.021 137.000  1.00  0.00     0.270 A 
ATOM      9  C   UNL     1     141.947  97.570 137.747  1.00  0.00     0.088 A 
ATOM     10  C   UNL     1     140.855  98.136 137.085  1.00  0.00     0.034 A 
ATOM     11  C   UNL     1     140.801  98.175 135.682  1.00  0.00     0.051 A 
ATOM     12  N   UNL     1     139.678  98.815 135.137  1.00  0.00    -0.324 N 
ATOM     13  H   UNL     1     138.861  98.961 135.718  1.00  0.00     0.170 HD
ENDROOT
BRANCH   5  14
ATOM     14  C   UNL     1     142.162  96.055 132.909  1.00  0.00     0.019 A 
ATOM     15  C   UNL     1     141.297  94.962 133.056  1.00  0.00     0.012 A 
ATOM     16  C   UNL     1     143.387  95.906 132.250  1.00  0.00     0.050 A 
ATOM     17  C   UNL     1     141.666  93.716 132.549  1.00  0.00     0.001 A 
ATOM     18  C   UNL     1     143.748  94.654 131.747  1.00  0.00     0.021 A 
ATOM     19  C   UNL     1     142.889  93.561 131.897  1.00  0.00     0.002 A 
ATOM     20  Cl  UNL     1     144.509  97.207 132.082  1.00  0.00    -0.084 Cl
ENDBRANCH   5  14
BRANCH   8  21
ATOM     21  N   UNL     1     144.146  96.428 137.688  1.00  0.00     0.062 N 
ATOM     22  O   UNL     1     144.233  96.597 138.912  1.00  0.00    -0.258 OA
ATOM     23  O   UNL     1     144.957  95.790 137.004  1.00  0.00    -0.258 OA
ENDBRANCH   8  21
TORSDOF 2
ENDMDL
MODEL 9
REMARK VINA RESULT:    -6.419      2.582      5.514
REMARK INTER + INTRA:          -7.864
REMARK INTER:                  -7.163
REMARK INTRA:                  -0.701
REMARK UNBOUND:                -0.694
REMARK SMILES O=C1CN=C(c2ccccc2Cl)c2cc([N+](=O)[O-])ccc2N1
REMARK SMILES IDX 1 1 2 2 3 3 4 4 5 5 13 6 14 7 15 8 19 9 20 10 21 11 22 12
REMARK SMILES IDX 6 14 7 15 11 16 8 17 10 18 9 19 12 20 16 21 17 22 18 23
REMARK H PARENT 22 13
ROOT
ATOM      1  O   UNL     1     141.733  95.249 130.115  1.00  0.00    -0.273 OA
ATOM      2  C   UNL     1     141.660  96.190 130.905  1.00  0.00     0.246 C 
ATOM      3  C   UNL     1     142.881  96.881 131.477  1.00  0.00     0.243 C 
ATOM      4  N   UNL     1     142.937  96.705 132.920  1.00  0.00    -0.274 NA
ATOM      5  C   UNL     1     142.071  97.295 133.666  1.00  0.00     0.076 C 
ATOM      6  C   UNL     1     140.915  98.123 133.202  1.00  0.00     0.031 A 
ATOM      7  C   UNL     1     140.530  99.224 133.989  1.00  0.00     0.098 A 
ATOM      8  C   UNL     1     139.352  99.922 133.697  1.00  0.00     0.270 A 
ATOM      9  C   UNL     1     138.539  99.525 132.632  1.00  0.00     0.088 A 
ATOM     10  C   UNL     1     138.928  98.441 131.842  1.00  0.00     0.034 A 
ATOM     11  C   UNL     1     140.128  97.755 132.093  1.00  0.00     0.051 A 
ATOM     12  N   UNL     1     140.431  96.719 131.199  1.00  0.00    -0.324 N 
ATOM     13  H   UNL     1     139.696  96.334 130.619  1.00  0.00     0.170 HD
ENDROOT
BRANCH   5  14
ATOM     14  C   UNL     1     142.214  97.074 135.129  1.00  0.00     0.019 A 
ATOM     15  C   UNL     1     143.212  97.790 135.804  1.00  0.00     0.012 A 
ATOM     16  C   UNL     1     141.374  96.200 135.828  1.00  0.00     0.050 A 
ATOM     17  C   UNL     1     143.375  97.622 137.178  1.00  0.00     0.001 A 
ATOM     18  C   UNL     1     141.545  96.037 137.204  1.00  0.00     0.021 A 
ATOM     19  C   UNL     1     142.544  96.746 137.878  1.00  0.00     0.002 A 
ATOM     20  Cl  UNL     1     140.159  95.261 135.040  1.00  0.00    -0.084 Cl
ENDBRANCH   5  14
BRANCH   8  21
ATOM     21  N   UNL     1     138.953 101.064 134.531  1.00  0.00     0.062 N 
ATOM     22  O   UNL     1     138.653 102.119 133.954  1.00  0.00    -0.258 OA
ATOM     23  O   UNL     1     138.935 100.901 135.758  1.00  0.00    -0.258 OA
ENDBRANCH   8  21
TORSDOF 2
ENDMDL
