MODEL 1
REMARK VINA RESULT:    -9.652      0.000      0.000
REMARK INTER + INTRA:         -11.847
REMARK INTER:                 -11.344
REMARK INTRA:                  -0.503
REMARK UNBOUND:                -0.503
REMARK SMILES CN1CCN(C(=O)OC2c3nccnc3C(=O)N2c2ccc(Cl)cn2)CC1
REMARK SMILES IDX 9 1 10 2 11 3 12 4 13 5 14 6 15 7 16 8 17 9 18 10 8 11 6 12
REMARK SMILES IDX 2 13 3 14 27 15 4 16 26 17 5 18 7 19 1 20 19 21 20 22 25 23
REMARK SMILES IDX 21 24 24 25 22 26 23 27
REMARK H PARENT
ROOT
ATOM      1  C   UNL     1     118.361 158.166 108.823  1.00  0.00     0.338 C 
ATOM      2  C   UNL     1     117.442 157.091 108.297  1.00  0.00     0.134 A 
ATOM      3  N   UNL     1     116.249 156.697 108.800  1.00  0.00    -0.251 NA
ATOM      4  C   UNL     1     115.668 155.686 108.105  1.00  0.00     0.131 A 
ATOM      5  C   UNL     1     116.252 155.105 106.977  1.00  0.00     0.132 A 
ATOM      6  N   UNL     1     117.450 155.501 106.479  1.00  0.00    -0.247 NA
ATOM      7  C   UNL     1     118.008 156.505 107.185  1.00  0.00     0.156 A 
ATOM      8  C   UNL     1     119.290 157.162 106.897  1.00  0.00     0.283 C 
ATOM      9  O   UNL     1     120.011 156.860 105.963  1.00  0.00    -0.267 OA
ATOM     10  N   UNL     1     119.456 158.151 107.858  1.00  0.00    -0.248 N 
ENDROOT
BRANCH   1  11
ATOM     11  O   UNL     1     118.862 157.758 110.092  1.00  0.00    -0.419 OA
BRANCH  11  12
ATOM     12  C   UNL     1     118.324 158.427 111.141  1.00  0.00     0.412 C 
ATOM     13  N   UNL     1     117.120 155.769 114.357  1.00  0.00    -0.303 NA
ATOM     14  C   UNL     1     116.898 155.422 112.938  1.00  0.00     0.106 C 
ATOM     15  C   UNL     1     117.535 157.177 114.540  1.00  0.00     0.106 C 
ATOM     16  C   UNL     1     117.885 156.113 111.983  1.00  0.00     0.138 C 
ATOM     17  C   UNL     1     117.271 158.105 113.340  1.00  0.00     0.138 C 
ATOM     18  N   UNL     1     117.835 157.571 112.105  1.00  0.00    -0.306 N 
ATOM     19  O   UNL     1     118.279 159.648 111.230  1.00  0.00    -0.224 OA
ATOM     20  C   UNL     1     115.947 155.438 115.161  1.00  0.00     0.105 C 
ENDBRANCH  11  12
ENDBRANCH   1  11
BRANCH  10  21
ATOM     21  C   UNL     1     120.493 159.094 107.954  1.00  0.00     0.138 A 
ATOM     22  C   UNL     1     121.695 158.953 107.264  1.00  0.00     0.049 A 
ATOM     23  N   UNL     1     120.265 160.167 108.749  1.00  0.00    -0.237 NA
ATOM     24  C   UNL     1     122.688 159.929 107.397  1.00  0.00     0.026 A 
ATOM     25  C   UNL     1     121.242 161.101 108.865  1.00  0.00     0.134 A 
ATOM     26  C   UNL     1     122.458 161.025 108.213  1.00  0.00     0.059 A 
ATOM     27  Cl  UNL     1     123.647 162.243 108.407  1.00  0.00    -0.083 Cl
ENDBRANCH  10  21
TORSDOF 3
ENDMDL
MODEL 2
REMARK VINA RESULT:    -8.581      3.050      5.481
REMARK INTER + INTRA:         -10.589
REMARK INTER:                 -10.282
REMARK INTRA:                  -0.307
REMARK UNBOUND:                -0.503
REMARK SMILES CN1CCN(C(=O)OC2c3nccnc3C(=O)N2c2ccc(Cl)cn2)CC1
REMARK SMILES IDX 9 1 10 2 11 3 12 4 13 5 14 6 15 7 16 8 17 9 18 10 8 11 6 12
REMARK SMILES IDX 2 13 3 14 27 15 4 16 26 17 5 18 7 19 1 20 19 21 20 22 25 23
REMARK SMILES IDX 21 24 24 25 22 26 23 27
REMARK H PARENT
ROOT
ATOM      1  C   UNL     1     119.407 158.156 108.824  1.00  0.00     0.338 C 
ATOM      2  C   UNL     1     120.535 159.071 108.416  1.00  0.00     0.134 A 
ATOM      3  N   UNL     1     121.431 159.694 109.216  1.00  0.00    -0.251 NA
ATOM      4  C   UNL     1     122.320 160.469 108.544  1.00  0.00     0.131 A 
ATOM      5  C   UNL     1     122.307 160.610 107.155  1.00  0.00     0.132 A 
ATOM      6  N   UNL     1     121.405 159.986 106.358  1.00  0.00    -0.247 NA
ATOM      7  C   UNL     1     120.532 159.224 107.047  1.00  0.00     0.156 A 
ATOM      8  C   UNL     1     119.446 158.415 106.476  1.00  0.00     0.283 C 
ATOM      9  O   UNL     1     119.209 158.345 105.284  1.00  0.00    -0.267 OA
ATOM     10  N   UNL     1     118.823 157.778 107.541  1.00  0.00    -0.248 N 
ENDROOT
BRANCH   1  11
ATOM     11  O   UNL     1     118.449 158.912 109.559  1.00  0.00    -0.419 OA
BRANCH  11  12
ATOM     12  C   UNL     1     118.184 158.418 110.794  1.00  0.00     0.412 C 
ATOM     13  N   UNL     1     115.577 161.022 113.090  1.00  0.00    -0.303 NA
ATOM     14  C   UNL     1     116.659 161.560 112.241  1.00  0.00     0.106 C 
ATOM     15  C   UNL     1     115.663 159.556 113.261  1.00  0.00     0.106 C 
ATOM     16  C   UNL     1     117.043 160.625 111.082  1.00  0.00     0.138 C 
ATOM     17  C   UNL     1     117.022 158.927 112.900  1.00  0.00     0.138 C 
ATOM     18  N   UNL     1     117.456 159.305 111.559  1.00  0.00    -0.306 N 
ATOM     19  O   UNL     1     118.542 157.315 111.187  1.00  0.00    -0.224 OA
ATOM     20  C   UNL     1     115.531 161.719 114.373  1.00  0.00     0.105 C 
ENDBRANCH  11  12
ENDBRANCH   1  11
BRANCH  10  21
ATOM     21  C   UNL     1     117.778 156.840 107.491  1.00  0.00     0.138 A 
ATOM     22  C   UNL     1     117.841 155.694 106.702  1.00  0.00     0.049 A 
ATOM     23  N   UNL     1     116.695 157.098 108.264  1.00  0.00    -0.237 NA
ATOM     24  C   UNL     1     116.769 154.796 106.699  1.00  0.00     0.026 A 
ATOM     25  C   UNL     1     115.666 156.214 108.244  1.00  0.00     0.134 A 
ATOM     26  C   UNL     1     115.659 155.059 107.484  1.00  0.00     0.059 A 
ATOM     27  Cl  UNL     1     114.322 153.987 107.509  1.00  0.00    -0.083 Cl
ENDBRANCH  10  21
TORSDOF 3
ENDMDL
MODEL 3
REMARK VINA RESULT:    -8.155      2.336      5.981
REMARK INTER + INTRA:         -10.088
REMARK INTER:                  -9.759
REMARK INTRA:                  -0.330
REMARK UNBOUND:                -0.503
REMARK SMILES CN1CCN(C(=O)OC2c3nccnc3C(=O)N2c2ccc(Cl)cn2)CC1
REMARK SMILES IDX 9 1 10 2 11 3 12 4 13 5 14 6 15 7 16 8 17 9 18 10 8 11 6 12
REMARK SMILES IDX 2 13 3 14 27 15 4 16 26 17 5 18 7 19 1 20 19 21 20 22 25 23
REMARK SMILES IDX 21 24 24 25 22 26 23 27
REMARK H PARENT
ROOT
ATOM      1  C   UNL     1     118.007 158.373 110.109  1.00  0.00     0.338 C 
ATOM      2  C   UNL     1     117.395 158.031 111.444  1.00  0.00     0.134 A 
ATOM      3  N   UNL     1     117.044 158.878 112.440  1.00  0.00    -0.251 NA
ATOM      4  C   UNL     1     116.530 158.257 113.532  1.00  0.00     0.131 A 
ATOM      5  C   UNL     1     116.381 156.872 113.619  1.00  0.00     0.132 A 
ATOM      6  N   UNL     1     116.737 156.027 112.620  1.00  0.00    -0.247 NA
ATOM      7  C   UNL     1     117.245 156.665 111.547  1.00  0.00     0.156 A 
ATOM      8  C   UNL     1     117.710 156.037 110.302  1.00  0.00     0.283 C 
ATOM      9  O   UNL     1     117.688 154.837 110.099  1.00  0.00    -0.267 OA
ATOM     10  N   UNL     1     118.124 157.068 109.467  1.00  0.00    -0.248 N 
ENDROOT
BRANCH   1  11
ATOM     11  O   UNL     1     119.313 158.897 110.325  1.00  0.00    -0.419 OA
BRANCH  11  12
ATOM     12  C   UNL     1     119.406 160.240 110.160  1.00  0.00     0.412 C 
ATOM     13  N   UNL     1     122.548 161.349 107.376  1.00  0.00    -0.303 NA
ATOM     14  C   UNL     1     122.732 160.265 108.362  1.00  0.00     0.106 C 
ATOM     15  C   UNL     1     121.326 162.143 107.624  1.00  0.00     0.106 C 
ATOM     16  C   UNL     1     121.410 159.613 108.801  1.00  0.00     0.138 C 
ATOM     17  C   UNL     1     120.712 161.989 109.028  1.00  0.00     0.138 C 
ATOM     18  N   UNL     1     120.481 160.590 109.370  1.00  0.00    -0.306 N 
ATOM     19  O   UNL     1     118.629 161.050 110.648  1.00  0.00    -0.224 OA
ATOM     20  C   UNL     1     123.740 162.190 107.303  1.00  0.00     0.105 C 
ENDBRANCH  11  12
ENDBRANCH   1  11
BRANCH  10  21
ATOM     21  C   UNL     1     118.578 156.972 108.141  1.00  0.00     0.138 A 
ATOM     22  C   UNL     1     117.712 156.765 107.069  1.00  0.00     0.049 A 
ATOM     23  N   UNL     1     119.912 157.102 107.946  1.00  0.00    -0.237 NA
ATOM     24  C   UNL     1     118.225 156.683 105.771  1.00  0.00     0.026 A 
ATOM     25  C   UNL     1     120.389 157.018 106.679  1.00  0.00     0.134 A 
ATOM     26  C   UNL     1     119.589 156.812 105.570  1.00  0.00     0.059 A 
ATOM     27  Cl  UNL     1     120.261 156.715 103.996  1.00  0.00    -0.083 Cl
ENDBRANCH  10  21
TORSDOF 3
ENDMDL
MODEL 4
REMARK VINA RESULT:    -8.151      3.869      6.787
REMARK INTER + INTRA:         -10.083
REMARK INTER:                  -9.457
REMARK INTRA:                  -0.626
REMARK UNBOUND:                -0.503
REMARK SMILES CN1CCN(C(=O)OC2c3nccnc3C(=O)N2c2ccc(Cl)cn2)CC1
REMARK SMILES IDX 9 1 10 2 11 3 12 4 13 5 14 6 15 7 16 8 17 9 18 10 8 11 6 12
REMARK SMILES IDX 2 13 3 14 27 15 4 16 26 17 5 18 7 19 1 20 19 21 20 22 25 23
REMARK SMILES IDX 21 24 24 25 22 26 23 27
REMARK H PARENT
ROOT
ATOM      1  C   UNL     1     117.073 157.457 114.306  1.00  0.00     0.338 C 
ATOM      2  C   UNL     1     116.486 158.413 115.315  1.00  0.00     0.134 A 
ATOM      3  N   UNL     1     116.452 158.283 116.661  1.00  0.00    -0.251 NA
ATOM      4  C   UNL     1     115.835 159.313 117.296  1.00  0.00     0.131 A 
ATOM      5  C   UNL     1     115.286 160.404 116.618  1.00  0.00     0.132 A 
ATOM      6  N   UNL     1     115.321 160.528 115.268  1.00  0.00    -0.247 NA
ATOM      7  C   UNL     1     115.936 159.494 114.661  1.00  0.00     0.156 A 
ATOM      8  C   UNL     1     116.147 159.337 113.215  1.00  0.00     0.283 C 
ATOM      9  O   UNL     1     115.776 160.146 112.384  1.00  0.00    -0.267 OA
ATOM     10  N   UNL     1     116.842 158.147 113.041  1.00  0.00    -0.248 N 
ENDROOT
BRANCH   1  11
ATOM     11  O   UNL     1     116.310 156.255 114.320  1.00  0.00    -0.419 OA
BRANCH  11  12
ATOM     12  C   UNL     1     117.030 155.145 114.619  1.00  0.00     0.412 C 
ATOM     13  N   UNL     1     115.719 153.267 118.307  1.00  0.00    -0.303 NA
ATOM     14  C   UNL     1     115.813 154.735 118.174  1.00  0.00     0.106 C 
ATOM     15  C   UNL     1     116.351 152.551 117.178  1.00  0.00     0.106 C 
ATOM     16  C   UNL     1     115.679 155.222 116.721  1.00  0.00     0.138 C 
ATOM     17  C   UNL     1     117.314 153.393 116.319  1.00  0.00     0.138 C 
ATOM     18  N   UNL     1     116.689 154.624 115.849  1.00  0.00    -0.306 N 
ATOM     19  O   UNL     1     117.880 154.657 113.885  1.00  0.00    -0.224 OA
ATOM     20  C   UNL     1     116.249 152.829 119.596  1.00  0.00     0.105 C 
ENDBRANCH  11  12
ENDBRANCH   1  11
BRANCH  10  21
ATOM     21  C   UNL     1     117.338 157.606 111.843  1.00  0.00     0.138 A 
ATOM     22  C   UNL     1     118.521 158.050 111.257  1.00  0.00     0.049 A 
ATOM     23  N   UNL     1     116.610 156.612 111.279  1.00  0.00    -0.237 NA
ATOM     24  C   UNL     1     118.966 157.469 110.066  1.00  0.00     0.026 A 
ATOM     25  C   UNL     1     117.058 156.063 110.122  1.00  0.00     0.134 A 
ATOM     26  C   UNL     1     118.221 156.455 109.486  1.00  0.00     0.059 A 
ATOM     27  Cl  UNL     1     118.726 155.716 108.025  1.00  0.00    -0.083 Cl
ENDBRANCH  10  21
TORSDOF 3
ENDMDL
MODEL 5
REMARK VINA RESULT:    -7.867      4.385      7.257
REMARK INTER + INTRA:          -9.749
REMARK INTER:                  -8.928
REMARK INTRA:                  -0.821
REMARK UNBOUND:                -0.503
REMARK SMILES CN1CCN(C(=O)OC2c3nccnc3C(=O)N2c2ccc(Cl)cn2)CC1
REMARK SMILES IDX 9 1 10 2 11 3 12 4 13 5 14 6 15 7 16 8 17 9 18 10 8 11 6 12
REMARK SMILES IDX 2 13 3 14 27 15 4 16 26 17 5 18 7 19 1 20 19 21 20 22 25 23
REMARK SMILES IDX 21 24 24 25 22 26 23 27
REMARK H PARENT
ROOT
ATOM      1  C   UNL     1     116.720 157.353 113.071  1.00  0.00     0.338 C 
ATOM      2  C   UNL     1     117.514 157.701 111.836  1.00  0.00     0.134 A 
ATOM      3  N   UNL     1     118.169 156.859 111.004  1.00  0.00    -0.251 NA
ATOM      4  C   UNL     1     118.809 157.485 109.983  1.00  0.00     0.131 A 
ATOM      5  C   UNL     1     118.794 158.871 109.812  1.00  0.00     0.132 A 
ATOM      6  N   UNL     1     118.139 159.711 110.651  1.00  0.00    -0.247 NA
ATOM      7  C   UNL     1     117.512 159.067 111.657  1.00  0.00     0.156 A 
ATOM      8  C   UNL     1     116.710 159.689 112.720  1.00  0.00     0.283 C 
ATOM      9  O   UNL     1     116.521 160.889 112.811  1.00  0.00    -0.267 OA
ATOM     10  N   UNL     1     116.235 158.655 113.516  1.00  0.00    -0.248 N 
ENDROOT
BRANCH   1  11
ATOM     11  O   UNL     1     117.609 156.833 114.054  1.00  0.00    -0.419 OA
BRANCH  11  12
ATOM     12  C   UNL     1     117.588 155.481 114.161  1.00  0.00     0.412 C 
ATOM     13  N   UNL     1     115.683 154.143 117.827  1.00  0.00    -0.303 NA
ATOM     14  C   UNL     1     116.586 155.312 117.803  1.00  0.00     0.106 C 
ATOM     15  C   UNL     1     115.721 153.369 116.568  1.00  0.00     0.106 C 
ATOM     16  C   UNL     1     116.660 155.994 116.426  1.00  0.00     0.138 C 
ATOM     17  C   UNL     1     116.934 153.645 115.659  1.00  0.00     0.138 C 
ATOM     18  N   UNL     1     117.091 155.068 115.379  1.00  0.00    -0.306 N 
ATOM     19  O   UNL     1     117.960 154.714 113.282  1.00  0.00    -0.224 OA
ATOM     20  C   UNL     1     115.952 153.305 118.992  1.00  0.00     0.105 C 
ENDBRANCH  11  12
ENDBRANCH   1  11
BRANCH  10  21
ATOM     21  C   UNL     1     115.362 158.745 114.613  1.00  0.00     0.138 A 
ATOM     22  C   UNL     1     114.122 158.109 114.633  1.00  0.00     0.049 A 
ATOM     23  N   UNL     1     115.788 159.478 115.669  1.00  0.00    -0.237 NA
ATOM     24  C   UNL     1     113.299 158.232 115.757  1.00  0.00     0.026 A 
ATOM     25  C   UNL     1     114.973 159.586 116.749  1.00  0.00     0.134 A 
ATOM     26  C   UNL     1     113.731 158.985 116.836  1.00  0.00     0.059 A 
ATOM     27  Cl  UNL     1     112.754 159.165 118.233  1.00  0.00    -0.083 Cl
ENDBRANCH  10  21
TORSDOF 3
ENDMDL
MODEL 6
REMARK VINA RESULT:    -7.865      4.209      6.515
REMARK INTER + INTRA:          -9.747
REMARK INTER:                  -9.000
REMARK INTRA:                  -0.748
REMARK UNBOUND:                -0.503
REMARK SMILES CN1CCN(C(=O)OC2c3nccnc3C(=O)N2c2ccc(Cl)cn2)CC1
REMARK SMILES IDX 9 1 10 2 11 3 12 4 13 5 14 6 15 7 16 8 17 9 18 10 8 11 6 12
REMARK SMILES IDX 2 13 3 14 27 15 4 16 26 17 5 18 7 19 1 20 19 21 20 22 25 23
REMARK SMILES IDX 21 24 24 25 22 26 23 27
REMARK H PARENT
ROOT
ATOM      1  C   UNL     1     116.242 159.101 112.914  1.00  0.00     0.338 C 
ATOM      2  C   UNL     1     117.179 158.552 111.866  1.00  0.00     0.134 A 
ATOM      3  N   UNL     1     117.473 157.257 111.610  1.00  0.00    -0.251 NA
ATOM      4  C   UNL     1     118.372 157.086 110.607  1.00  0.00     0.131 A 
ATOM      5  C   UNL     1     118.941 158.152 109.908  1.00  0.00     0.132 A 
ATOM      6  N   UNL     1     118.645 159.449 110.171  1.00  0.00    -0.247 NA
ATOM      7  C   UNL     1     117.752 159.594 111.170  1.00  0.00     0.156 A 
ATOM      8  C   UNL     1     117.220 160.864 111.682  1.00  0.00     0.283 C 
ATOM      9  O   UNL     1     117.539 161.956 111.249  1.00  0.00    -0.267 OA
ATOM     10  N   UNL     1     116.315 160.541 112.685  1.00  0.00    -0.248 N 
ENDROOT
BRANCH   1  11
ATOM     11  O   UNL     1     116.779 158.813 114.201  1.00  0.00    -0.419 OA
BRANCH  11  12
ATOM     12  C   UNL     1     115.881 158.288 115.071  1.00  0.00     0.412 C 
ATOM     13  N   UNL     1     116.984 154.298 116.381  1.00  0.00    -0.303 NA
ATOM     14  C   UNL     1     117.157 154.731 114.979  1.00  0.00     0.106 C 
ATOM     15  C   UNL     1     116.182 155.253 117.177  1.00  0.00     0.106 C 
ATOM     16  C   UNL     1     117.314 156.253 114.829  1.00  0.00     0.138 C 
ATOM     17  C   UNL     1     115.354 156.261 116.359  1.00  0.00     0.138 C 
ATOM     18  N   UNL     1     116.173 156.979 115.389  1.00  0.00    -0.306 N 
ATOM     19  O   UNL     1     114.924 158.901 115.528  1.00  0.00    -0.224 OA
ATOM     20  C   UNL     1     116.440 152.944 116.442  1.00  0.00     0.105 C 
ENDBRANCH  11  12
ENDBRANCH   1  11
BRANCH  10  21
ATOM     21  C   UNL     1     115.496 161.413 113.421  1.00  0.00     0.138 A 
ATOM     22  C   UNL     1     114.106 161.316 113.413  1.00  0.00     0.049 A 
ATOM     23  N   UNL     1     116.125 162.361 114.155  1.00  0.00    -0.237 NA
ATOM     24  C   UNL     1     113.345 162.212 114.169  1.00  0.00     0.026 A 
ATOM     25  C   UNL     1     115.368 163.222 114.881  1.00  0.00     0.134 A 
ATOM     26  C   UNL     1     113.987 163.185 114.918  1.00  0.00     0.059 A 
ATOM     27  Cl  UNL     1     113.093 164.305 115.858  1.00  0.00    -0.083 Cl
ENDBRANCH  10  21
TORSDOF 3
ENDMDL
MODEL 7
REMARK VINA RESULT:    -7.865      3.977      6.881
REMARK INTER + INTRA:          -9.747
REMARK INTER:                  -8.922
REMARK INTRA:                  -0.825
REMARK UNBOUND:                -0.503
REMARK SMILES CN1CCN(C(=O)OC2c3nccnc3C(=O)N2c2ccc(Cl)cn2)CC1
REMARK SMILES IDX 9 1 10 2 11 3 12 4 13 5 14 6 15 7 16 8 17 9 18 10 8 11 6 12
REMARK SMILES IDX 2 13 3 14 27 15 4 16 26 17 5 18 7 19 1 20 19 21 20 22 25 23
REMARK SMILES IDX 21 24 24 25 22 26 23 27
REMARK H PARENT
ROOT
ATOM      1  C   UNL     1     116.181 156.348 114.322  1.00  0.00     0.338 C 
ATOM      2  C   UNL     1     116.198 155.413 115.506  1.00  0.00     0.134 A 
ATOM      3  N   UNL     1     115.529 155.540 116.675  1.00  0.00    -0.251 NA
ATOM      4  C   UNL     1     115.768 154.534 117.555  1.00  0.00     0.131 A 
ATOM      5  C   UNL     1     116.626 153.469 117.277  1.00  0.00     0.132 A 
ATOM      6  N   UNL     1     117.296 153.348 116.104  1.00  0.00    -0.247 NA
ATOM      7  C   UNL     1     117.045 154.358 115.248  1.00  0.00     0.156 A 
ATOM      8  C   UNL     1     117.604 154.510 113.897  1.00  0.00     0.283 C 
ATOM      9  O   UNL     1     118.379 153.719 113.391  1.00  0.00    -0.267 OA
ATOM     10  N   UNL     1     117.056 155.672 113.369  1.00  0.00    -0.248 N 
ENDROOT
BRANCH   1  11
ATOM     11  O   UNL     1     116.784 157.580 114.704  1.00  0.00    -0.419 OA
BRANCH  11  12
ATOM     12  C   UNL     1     116.075 158.679 114.345  1.00  0.00     0.412 C 
ATOM     13  N   UNL     1     114.761 160.995 117.774  1.00  0.00    -0.303 NA
ATOM     14  C   UNL     1     114.730 159.518 117.777  1.00  0.00     0.106 C 
ATOM     15  C   UNL     1     115.027 161.556 116.432  1.00  0.00     0.106 C 
ATOM     16  C   UNL     1     115.753 158.888 116.816  1.00  0.00     0.138 C 
ATOM     17  C   UNL     1     114.817 160.584 115.256  1.00  0.00     0.138 C 
ATOM     18  N   UNL     1     115.560 159.342 115.438  1.00  0.00    -0.306 N 
ATOM     19  O   UNL     1     115.912 159.046 113.188  1.00  0.00    -0.224 OA
ATOM     20  C   UNL     1     113.540 161.539 118.362  1.00  0.00     0.105 C 
ENDBRANCH  11  12
ENDBRANCH   1  11
BRANCH  10  21
ATOM     21  C   UNL     1     117.229 156.196 112.076  1.00  0.00     0.138 A 
ATOM     22  C   UNL     1     118.335 156.966 111.725  1.00  0.00     0.049 A 
ATOM     23  N   UNL     1     116.263 155.907 111.171  1.00  0.00    -0.237 NA
ATOM     24  C   UNL     1     118.453 157.456 110.421  1.00  0.00     0.026 A 
ATOM     25  C   UNL     1     116.396 156.394 109.912  1.00  0.00     0.134 A 
ATOM     26  C   UNL     1     117.464 157.165 109.495  1.00  0.00     0.059 A 
ATOM     27  Cl  UNL     1     117.566 157.746 107.886  1.00  0.00    -0.083 Cl
ENDBRANCH  10  21
TORSDOF 3
ENDMDL
MODEL 8
REMARK VINA RESULT:    -7.799      3.750      6.144
REMARK INTER + INTRA:          -9.669
REMARK INTER:                  -8.794
REMARK INTRA:                  -0.876
REMARK UNBOUND:                -0.503
REMARK SMILES CN1CCN(C(=O)OC2c3nccnc3C(=O)N2c2ccc(Cl)cn2)CC1
REMARK SMILES IDX 9 1 10 2 11 3 12 4 13 5 14 6 15 7 16 8 17 9 18 10 8 11 6 12
REMARK SMILES IDX 2 13 3 14 27 15 4 16 26 17 5 18 7 19 1 20 19 21 20 22 25 23
REMARK SMILES IDX 21 24 24 25 22 26 23 27
REMARK H PARENT
ROOT
ATOM      1  C   UNL     1     118.198 158.577 111.116  1.00  0.00     0.338 C 
ATOM      2  C   UNL     1     118.771 158.290 109.750  1.00  0.00     0.134 A 
ATOM      3  N   UNL     1     119.382 159.153 108.906  1.00  0.00    -0.251 NA
ATOM      4  C   UNL     1     119.775 158.589 107.735  1.00  0.00     0.131 A 
ATOM      5  C   UNL     1     119.565 157.243 107.432  1.00  0.00     0.132 A 
ATOM      6  N   UNL     1     118.949 156.382 108.280  1.00  0.00    -0.247 NA
ATOM      7  C   UNL     1     118.567 156.964 109.434  1.00  0.00     0.156 A 
ATOM      8  C   UNL     1     117.890 156.302 110.558  1.00  0.00     0.283 C 
ATOM      9  O   UNL     1     117.589 155.122 110.568  1.00  0.00    -0.267 OA
ATOM     10  N   UNL     1     117.713 157.268 111.541  1.00  0.00    -0.248 N 
ENDROOT
BRANCH   1  11
ATOM     11  O   UNL     1     117.085 159.453 110.969  1.00  0.00    -0.419 OA
BRANCH  11  12
ATOM     12  C   UNL     1     117.351 160.744 111.289  1.00  0.00     0.412 C 
ATOM     13  N   UNL     1     114.915 162.164 114.591  1.00  0.00    -0.303 NA
ATOM     14  C   UNL     1     114.358 161.301 113.530  1.00  0.00     0.106 C 
ATOM     15  C   UNL     1     116.262 162.675 114.259  1.00  0.00     0.106 C 
ATOM     16  C   UNL     1     115.417 160.424 112.842  1.00  0.00     0.138 C 
ATOM     17  C   UNL     1     116.659 162.577 112.774  1.00  0.00     0.138 C 
ATOM     18  N   UNL     1     116.492 161.224 112.255  1.00  0.00    -0.306 N 
ATOM     19  O   UNL     1     118.248 161.409 110.785  1.00  0.00    -0.224 OA
ATOM     20  C   UNL     1     113.988 163.243 114.921  1.00  0.00     0.105 C 
ENDBRANCH  11  12
ENDBRANCH   1  11
BRANCH  10  21
ATOM     21  C   UNL     1     117.179 157.098 112.829  1.00  0.00     0.138 A 
ATOM     22  C   UNL     1     117.946 157.258 113.981  1.00  0.00     0.049 A 
ATOM     23  N   UNL     1     115.865 156.778 112.904  1.00  0.00    -0.237 NA
ATOM     24  C   UNL     1     117.356 157.079 115.236  1.00  0.00     0.026 A 
ATOM     25  C   UNL     1     115.313 156.608 114.131  1.00  0.00     0.134 A 
ATOM     26  C   UNL     1     116.013 156.748 115.314  1.00  0.00     0.059 A 
ATOM     27  Cl  UNL     1     115.250 156.517 116.831  1.00  0.00    -0.083 Cl
ENDBRANCH  10  21
TORSDOF 3
ENDMDL
MODEL 9
REMARK VINA RESULT:    -7.567      3.347      7.191
REMARK INTER + INTRA:          -9.397
REMARK INTER:                  -9.318
REMARK INTRA:                  -0.078
REMARK UNBOUND:                -0.503
REMARK SMILES CN1CCN(C(=O)OC2c3nccnc3C(=O)N2c2ccc(Cl)cn2)CC1
REMARK SMILES IDX 9 1 10 2 11 3 12 4 13 5 14 6 15 7 16 8 17 9 18 10 8 11 6 12
REMARK SMILES IDX 2 13 3 14 27 15 4 16 26 17 5 18 7 19 1 20 19 21 20 22 25 23
REMARK SMILES IDX 21 24 24 25 22 26 23 27
REMARK H PARENT
ROOT
ATOM      1  C   UNL     1     117.030 157.372 113.721  1.00  0.00     0.338 C 
ATOM      2  C   UNL     1     116.821 156.059 114.435  1.00  0.00     0.134 A 
ATOM      3  N   UNL     1     117.528 154.914 114.294  1.00  0.00    -0.251 NA
ATOM      4  C   UNL     1     117.080 153.894 115.071  1.00  0.00     0.131 A 
ATOM      5  C   UNL     1     115.989 154.018 115.932  1.00  0.00     0.132 A 
ATOM      6  N   UNL     1     115.281 155.167 116.067  1.00  0.00    -0.247 NA
ATOM      7  C   UNL     1     115.743 156.164 115.286  1.00  0.00     0.156 A 
ATOM      8  C   UNL     1     115.204 157.530 115.212  1.00  0.00     0.283 C 
ATOM      9  O   UNL     1     114.253 157.919 115.865  1.00  0.00    -0.267 OA
ATOM     10  N   UNL     1     115.999 158.222 114.306  1.00  0.00    -0.248 N 
ENDROOT
BRANCH   1  11
ATOM     11  O   UNL     1     116.744 157.189 112.338  1.00  0.00    -0.419 OA
BRANCH  11  12
ATOM     12  C   UNL     1     117.826 157.303 111.528  1.00  0.00     0.412 C 
ATOM     13  N   UNL     1     116.902 156.368 107.390  1.00  0.00    -0.303 NA
ATOM     14  C   UNL     1     116.341 155.582 108.508  1.00  0.00     0.106 C 
ATOM     15  C   UNL     1     117.972 157.292 107.825  1.00  0.00     0.106 C 
ATOM     16  C   UNL     1     116.250 156.375 109.823  1.00  0.00     0.138 C 
ATOM     17  C   UNL     1     118.579 156.994 109.209  1.00  0.00     0.138 C 
ATOM     18  N   UNL     1     117.555 156.890 110.241  1.00  0.00    -0.306 N 
ATOM     19  O   UNL     1     118.916 157.727 111.891  1.00  0.00    -0.224 OA
ATOM     20  C   UNL     1     117.344 155.490 106.311  1.00  0.00     0.105 C 
ENDBRANCH  11  12
ENDBRANCH   1  11
BRANCH  10  21
ATOM     21  C   UNL     1     115.924 159.581 113.958  1.00  0.00     0.138 A 
ATOM     22  C   UNL     1     116.346 160.058 112.719  1.00  0.00     0.049 A 
ATOM     23  N   UNL     1     115.406 160.417 114.889  1.00  0.00    -0.237 NA
ATOM     24  C   UNL     1     116.242 161.422 112.430  1.00  0.00     0.026 A 
ATOM     25  C   UNL     1     115.315 161.738 114.588  1.00  0.00     0.134 A 
ATOM     26  C   UNL     1     115.717 162.280 113.382  1.00  0.00     0.059 A 
ATOM     27  Cl  UNL     1     115.572 163.959 113.071  1.00  0.00    -0.083 Cl
ENDBRANCH  10  21
TORSDOF 3
ENDMDL
