MODEL 1
REMARK VINA RESULT:    -6.813      0.000      0.000
REMARK INTER + INTRA:          -8.014
REMARK INTER:                  -7.411
REMARK INTRA:                  -0.603
REMARK UNBOUND:                -0.603
REMARK SMILES O=C1Nc2ccc(Cl)cc2C(c2ccccc2Cl)=NC1O
REMARK SMILES IDX 1 1 2 2 3 3 4 4 5 5 6 6 7 7 8 8 9 9 10 10 11 11 19 12 20 13
REMARK SMILES IDX 21 15 12 17 13 18 17 19 14 20 16 21 15 22 18 23
REMARK H PARENT 3 14 21 16
ROOT
ATOM      1  O   UNL     1     145.816  96.602 133.635  1.00  0.00    -0.269 OA
ATOM      2  C   UNL     1     144.788  97.148 134.042  1.00  0.00     0.276 C 
ATOM      3  N   UNL     1     144.188  96.669 135.179  1.00  0.00    -0.321 N 
ATOM      4  C   UNL     1     143.021  97.143 135.795  1.00  0.00     0.050 A 
ATOM      5  C   UNL     1     142.905  96.878 137.169  1.00  0.00     0.028 A 
ATOM      6  C   UNL     1     141.814  97.353 137.899  1.00  0.00     0.023 A 
ATOM      7  C   UNL     1     140.822  98.084 137.256  1.00  0.00     0.041 A 
ATOM      8  Cl  UNL     1     139.480  98.676 138.154  1.00  0.00    -0.084 Cl
ATOM      9  C   UNL     1     140.896  98.318 135.885  1.00  0.00     0.033 A 
ATOM     10  C   UNL     1     141.984  97.831 135.141  1.00  0.00     0.026 A 
ATOM     11  C   UNL     1     141.915  97.925 133.651  1.00  0.00     0.079 C 
ATOM     12  N   UNL     1     142.896  98.145 132.849  1.00  0.00    -0.243 NA
ATOM     13  C   UNL     1     144.216  98.429 133.393  1.00  0.00     0.323 C 
ATOM     14  H   UNL     1     144.740  95.961 135.646  1.00  0.00     0.170 HD
ENDROOT
BRANCH  13  15
ATOM     15  O   UNL     1     144.296  99.551 134.262  1.00  0.00    -0.364 OA
ATOM     16  H   UNL     1     144.399  99.184 135.155  1.00  0.00     0.213 HD
ENDBRANCH  13  15
BRANCH  11  17
ATOM     17  C   UNL     1     140.595  97.672 133.013  1.00  0.00     0.019 A 
ATOM     18  C   UNL     1     140.175  96.341 132.885  1.00  0.00     0.012 A 
ATOM     19  C   UNL     1     139.797  98.715 132.531  1.00  0.00     0.050 A 
ATOM     20  C   UNL     1     138.952  96.055 132.281  1.00  0.00     0.001 A 
ATOM     21  C   UNL     1     138.572  98.419 131.927  1.00  0.00     0.021 A 
ATOM     22  C   UNL     1     138.151  97.092 131.802  1.00  0.00     0.002 A 
ATOM     23  Cl  UNL     1     140.235 100.376 132.701  1.00  0.00    -0.084 Cl
ENDBRANCH  11  17
TORSDOF 2
ENDMDL
MODEL 2
REMARK VINA RESULT:    -6.801      2.982      4.451
REMARK INTER + INTRA:          -8.001
REMARK INTER:                  -7.467
REMARK INTRA:                  -0.534
REMARK UNBOUND:                -0.603
REMARK SMILES O=C1Nc2ccc(Cl)cc2C(c2ccccc2Cl)=NC1O
REMARK SMILES IDX 1 1 2 2 3 3 4 4 5 5 6 6 7 7 8 8 9 9 10 10 11 11 19 12 20 13
REMARK SMILES IDX 21 15 12 17 13 18 17 19 14 20 16 21 15 22 18 23
REMARK H PARENT 3 14 21 16
ROOT
ATOM      1  O   UNL     1     138.446 100.414 133.575  1.00  0.00    -0.269 OA
ATOM      2  C   UNL     1     139.030  99.384 133.921  1.00  0.00     0.276 C 
ATOM      3  N   UNL     1     139.708  99.376 135.113  1.00  0.00    -0.321 N 
ATOM      4  C   UNL     1     140.434  98.317 135.677  1.00  0.00     0.050 A 
ATOM      5  C   UNL     1     140.572  98.346 137.074  1.00  0.00     0.028 A 
ATOM      6  C   UNL     1     141.223  97.313 137.750  1.00  0.00     0.023 A 
ATOM      7  C   UNL     1     141.755  96.249 137.032  1.00  0.00     0.041 A 
ATOM      8  Cl  UNL     1     142.552  94.972 137.862  1.00  0.00    -0.084 Cl
ATOM      9  C   UNL     1     141.669  96.225 135.642  1.00  0.00     0.033 A 
ATOM     10  C   UNL     1     141.027  97.268 134.953  1.00  0.00     0.026 A 
ATOM     11  C   UNL     1     141.143  97.302 133.463  1.00  0.00     0.079 C 
ATOM     12  N   UNL     1     140.242  97.692 132.631  1.00  0.00    -0.243 NA
ATOM     13  C   UNL     1     138.924  98.063 133.126  1.00  0.00     0.323 C 
ATOM     14  H   UNL     1     139.556 100.215 135.658  1.00  0.00     0.170 HD
ENDROOT
BRANCH  13  15
ATOM     15  O   UNL     1     138.231  97.055 133.850  1.00  0.00    -0.364 OA
ATOM     16  H   UNL     1     138.862  96.323 133.948  1.00  0.00     0.213 HD
ENDBRANCH  13  15
BRANCH  11  17
ATOM     17  C   UNL     1     142.451  96.914 132.873  1.00  0.00     0.019 A 
ATOM     18  C   UNL     1     142.492  95.763 132.074  1.00  0.00     0.012 A 
ATOM     19  C   UNL     1     143.618  97.647 133.115  1.00  0.00     0.050 A 
ATOM     20  C   UNL     1     143.699  95.352 131.511  1.00  0.00     0.001 A 
ATOM     21  C   UNL     1     144.824  97.228 132.546  1.00  0.00     0.021 A 
ATOM     22  C   UNL     1     144.864  96.083 131.747  1.00  0.00     0.002 A 
ATOM     23  Cl  UNL     1     143.625  99.098 134.050  1.00  0.00    -0.084 Cl
ENDBRANCH  11  17
TORSDOF 2
ENDMDL
MODEL 3
REMARK VINA RESULT:    -6.659      2.515      4.392
REMARK INTER + INTRA:          -7.847
REMARK INTER:                  -7.246
REMARK INTRA:                  -0.600
REMARK UNBOUND:                -0.603
REMARK SMILES O=C1Nc2ccc(Cl)cc2C(c2ccccc2Cl)=NC1O
REMARK SMILES IDX 1 1 2 2 3 3 4 4 5 5 6 6 7 7 8 8 9 9 10 10 11 11 19 12 20 13
REMARK SMILES IDX 21 15 12 17 13 18 17 19 14 20 16 21 15 22 18 23
REMARK H PARENT 3 14 21 16
ROOT
ATOM      1  O   UNL     1     140.799  97.819 137.781  1.00  0.00    -0.269 OA
ATOM      2  C   UNL     1     140.999  98.030 136.581  1.00  0.00     0.276 C 
ATOM      3  N   UNL     1     140.097  98.793 135.884  1.00  0.00    -0.321 N 
ATOM      4  C   UNL     1     140.140  99.140 134.526  1.00  0.00     0.050 A 
ATOM      5  C   UNL     1     139.456 100.314 134.173  1.00  0.00     0.028 A 
ATOM      6  C   UNL     1     139.480 100.789 132.861  1.00  0.00     0.023 A 
ATOM      7  C   UNL     1     140.176 100.083 131.887  1.00  0.00     0.041 A 
ATOM      8  Cl  UNL     1     140.213 100.668 130.270  1.00  0.00    -0.084 Cl
ATOM      9  C   UNL     1     140.823  98.892 132.207  1.00  0.00     0.033 A 
ATOM     10  C   UNL     1     140.791  98.400 133.523  1.00  0.00     0.026 A 
ATOM     11  C   UNL     1     141.317  97.023 133.772  1.00  0.00     0.079 C 
ATOM     12  N   UNL     1     141.945  96.618 134.819  1.00  0.00    -0.243 NA
ATOM     13  C   UNL     1     142.288  97.574 135.862  1.00  0.00     0.323 C 
ATOM     14  H   UNL     1     139.395  99.214 136.478  1.00  0.00     0.170 HD
ENDROOT
BRANCH  13  15
ATOM     15  O   UNL     1     143.091  98.673 135.451  1.00  0.00    -0.364 OA
ATOM     16  H   UNL     1     143.778  98.763 136.131  1.00  0.00     0.213 HD
ENDBRANCH  13  15
BRANCH  11  17
ATOM     17  C   UNL     1     141.031  95.989 132.742  1.00  0.00     0.019 A 
ATOM     18  C   UNL     1     142.088  95.577 131.919  1.00  0.00     0.012 A 
ATOM     19  C   UNL     1     139.750  95.452 132.570  1.00  0.00     0.050 A 
ATOM     20  C   UNL     1     141.864  94.620 130.930  1.00  0.00     0.001 A 
ATOM     21  C   UNL     1     139.535  94.493 131.577  1.00  0.00     0.021 A 
ATOM     22  C   UNL     1     140.590  94.079 130.759  1.00  0.00     0.002 A 
ATOM     23  Cl  UNL     1     138.419  95.883 133.581  1.00  0.00    -0.084 Cl
ENDBRANCH  11  17
TORSDOF 2
ENDMDL
MODEL 4
REMARK VINA RESULT:    -6.587      3.400      4.547
REMARK INTER + INTRA:          -7.768
REMARK INTER:                  -7.167
REMARK INTRA:                  -0.601
REMARK UNBOUND:                -0.603
REMARK SMILES O=C1Nc2ccc(Cl)cc2C(c2ccccc2Cl)=NC1O
REMARK SMILES IDX 1 1 2 2 3 3 4 4 5 5 6 6 7 7 8 8 9 9 10 10 11 11 19 12 20 13
REMARK SMILES IDX 21 15 12 17 13 18 17 19 14 20 16 21 15 22 18 23
REMARK H PARENT 3 14 21 16
ROOT
ATOM      1  O   UNL     1     144.581  97.043 139.643  1.00  0.00    -0.269 OA
ATOM      2  C   UNL     1     144.010  96.507 138.690  1.00  0.00     0.276 C 
ATOM      3  N   UNL     1     144.766  95.997 137.665  1.00  0.00    -0.321 N 
ATOM      4  C   UNL     1     144.311  95.362 136.501  1.00  0.00     0.050 A 
ATOM      5  C   UNL     1     145.218  94.479 135.893  1.00  0.00     0.028 A 
ATOM      6  C   UNL     1     144.854  93.746 134.762  1.00  0.00     0.023 A 
ATOM      7  C   UNL     1     143.583  93.901 134.223  1.00  0.00     0.041 A 
ATOM      8  Cl  UNL     1     143.128  92.994 132.834  1.00  0.00    -0.084 Cl
ATOM      9  C   UNL     1     142.685  94.805 134.784  1.00  0.00     0.033 A 
ATOM     10  C   UNL     1     143.050  95.558 135.913  1.00  0.00     0.026 A 
ATOM     11  C   UNL     1     142.137  96.658 136.349  1.00  0.00     0.079 C 
ATOM     12  N   UNL     1     141.901  97.026 137.559  1.00  0.00    -0.243 NA
ATOM     13  C   UNL     1     142.482  96.275 138.662  1.00  0.00     0.323 C 
ATOM     14  H   UNL     1     145.758  96.015 137.863  1.00  0.00     0.170 HD
ENDROOT
BRANCH  13  15
ATOM     15  O   UNL     1     142.148  94.894 138.710  1.00  0.00    -0.364 OA
ATOM     16  H   UNL     1     142.704  94.515 139.411  1.00  0.00     0.213 HD
ENDBRANCH  13  15
BRANCH  11  17
ATOM     17  C   UNL     1     141.482  97.462 135.283  1.00  0.00     0.019 A 
ATOM     18  C   UNL     1     140.114  97.255 135.055  1.00  0.00     0.012 A 
ATOM     19  C   UNL     1     142.195  98.382 134.508  1.00  0.00     0.050 A 
ATOM     20  C   UNL     1     139.461  97.975 134.057  1.00  0.00     0.001 A 
ATOM     21  C   UNL     1     141.532  99.100 133.509  1.00  0.00     0.021 A 
ATOM     22  C   UNL     1     140.168  98.896 133.285  1.00  0.00     0.002 A 
ATOM     23  Cl  UNL     1     143.868  98.717 134.770  1.00  0.00    -0.084 Cl
ENDBRANCH  11  17
TORSDOF 2
ENDMDL
MODEL 5
REMARK VINA RESULT:    -6.226      2.824      5.122
REMARK INTER + INTRA:          -7.376
REMARK INTER:                  -6.835
REMARK INTRA:                  -0.541
REMARK UNBOUND:                -0.603
REMARK SMILES O=C1Nc2ccc(Cl)cc2C(c2ccccc2Cl)=NC1O
REMARK SMILES IDX 1 1 2 2 3 3 4 4 5 5 6 6 7 7 8 8 9 9 10 10 11 11 19 12 20 13
REMARK SMILES IDX 21 15 12 17 13 18 17 19 14 20 16 21 15 22 18 23
REMARK H PARENT 3 14 21 16
ROOT
ATOM      1  O   UNL     1     141.656  95.232 130.188  1.00  0.00    -0.269 OA
ATOM      2  C   UNL     1     141.092  95.971 130.999  1.00  0.00     0.276 C 
ATOM      3  N   UNL     1     141.248  97.329 130.879  1.00  0.00    -0.321 N 
ATOM      4  C   UNL     1     140.700  98.329 131.695  1.00  0.00     0.050 A 
ATOM      5  C   UNL     1     140.545  99.589 131.096  1.00  0.00     0.028 A 
ATOM      6  C   UNL     1     139.956 100.644 131.794  1.00  0.00     0.023 A 
ATOM      7  C   UNL     1     139.530 100.451 133.102  1.00  0.00     0.041 A 
ATOM      8  Cl  UNL     1     138.798 101.747 133.963  1.00  0.00    -0.084 Cl
ATOM      9  C   UNL     1     139.717  99.222 133.729  1.00  0.00     0.033 A 
ATOM     10  C   UNL     1     140.323  98.158 133.038  1.00  0.00     0.026 A 
ATOM     11  C   UNL     1     140.690  96.934 133.813  1.00  0.00     0.079 C 
ATOM     12  N   UNL     1     140.649  95.718 133.394  1.00  0.00    -0.243 NA
ATOM     13  C   UNL     1     140.114  95.436 132.070  1.00  0.00     0.323 C 
ATOM     14  H   UNL     1     141.738  97.595 130.034  1.00  0.00     0.170 HD
ENDROOT
BRANCH  13  15
ATOM     15  O   UNL     1     138.779  95.865 131.840  1.00  0.00    -0.364 OA
ATOM     16  H   UNL     1     138.787  96.286 130.965  1.00  0.00     0.213 HD
ENDBRANCH  13  15
BRANCH  11  17
ATOM     17  C   UNL     1     141.223  97.133 135.187  1.00  0.00     0.019 A 
ATOM     18  C   UNL     1     140.321  97.048 136.257  1.00  0.00     0.012 A 
ATOM     19  C   UNL     1     142.572  97.419 135.422  1.00  0.00     0.050 A 
ATOM     20  C   UNL     1     140.772  97.241 137.562  1.00  0.00     0.001 A 
ATOM     21  C   UNL     1     143.016  97.610 136.734  1.00  0.00     0.021 A 
ATOM     22  C   UNL     1     142.117  97.522 137.800  1.00  0.00     0.002 A 
ATOM     23  Cl  UNL     1     143.740  97.490 134.154  1.00  0.00    -0.084 Cl
ENDBRANCH  11  17
TORSDOF 2
ENDMDL
MODEL 6
REMARK VINA RESULT:    -6.153      2.824      4.539
REMARK INTER + INTRA:          -7.296
REMARK INTER:                  -6.695
REMARK INTRA:                  -0.601
REMARK UNBOUND:                -0.603
REMARK SMILES O=C1Nc2ccc(Cl)cc2C(c2ccccc2Cl)=NC1O
REMARK SMILES IDX 1 1 2 2 3 3 4 4 5 5 6 6 7 7 8 8 9 9 10 10 11 11 19 12 20 13
REMARK SMILES IDX 21 15 12 17 13 18 17 19 14 20 16 21 15 22 18 23
REMARK H PARENT 3 14 21 16
ROOT
ATOM      1  O   UNL     1     144.150  99.035 134.656  1.00  0.00    -0.269 OA
ATOM      2  C   UNL     1     143.366  98.723 133.756  1.00  0.00     0.276 C 
ATOM      3  N   UNL     1     142.017  98.801 133.994  1.00  0.00    -0.321 N 
ATOM      4  C   UNL     1     140.973  98.488 133.112  1.00  0.00     0.050 A 
ATOM      5  C   UNL     1     139.751  99.132 133.359  1.00  0.00     0.028 A 
ATOM      6  C   UNL     1     138.658  98.942 132.511  1.00  0.00     0.023 A 
ATOM      7  C   UNL     1     138.776  98.094 131.417  1.00  0.00     0.041 A 
ATOM      8  Cl  UNL     1     137.434  97.863 130.367  1.00  0.00    -0.084 Cl
ATOM      9  C   UNL     1     139.966  97.411 131.181  1.00  0.00     0.033 A 
ATOM     10  C   UNL     1     141.066  97.585 132.039  1.00  0.00     0.026 A 
ATOM     11  C   UNL     1     142.241  96.678 131.868  1.00  0.00     0.079 C 
ATOM     12  N   UNL     1     143.480  96.986 132.033  1.00  0.00    -0.243 NA
ATOM     13  C   UNL     1     143.841  98.365 132.329  1.00  0.00     0.323 C 
ATOM     14  H   UNL     1     141.800  99.235 134.882  1.00  0.00     0.170 HD
ENDROOT
BRANCH  13  15
ATOM     15  O   UNL     1     143.430  99.329 131.370  1.00  0.00    -0.364 OA
ATOM     16  H   UNL     1     144.133  99.999 131.354  1.00  0.00     0.213 HD
ENDBRANCH  13  15
BRANCH  11  17
ATOM     17  C   UNL     1     141.962  95.255 131.539  1.00  0.00     0.019 A 
ATOM     18  C   UNL     1     142.209  94.826 130.228  1.00  0.00     0.012 A 
ATOM     19  C   UNL     1     141.445  94.366 132.489  1.00  0.00     0.050 A 
ATOM     20  C   UNL     1     141.948  93.504 129.871  1.00  0.00     0.001 A 
ATOM     21  C   UNL     1     141.187  93.043 132.121  1.00  0.00     0.021 A 
ATOM     22  C   UNL     1     141.438  92.613 130.816  1.00  0.00     0.002 A 
ATOM     23  Cl  UNL     1     141.164  94.821 134.130  1.00  0.00    -0.084 Cl
ENDBRANCH  11  17
TORSDOF 2
ENDMDL
MODEL 7
REMARK VINA RESULT:    -6.105      3.232      5.065
REMARK INTER + INTRA:          -7.243
REMARK INTER:                  -6.723
REMARK INTRA:                  -0.520
REMARK UNBOUND:                -0.603
REMARK SMILES O=C1Nc2ccc(Cl)cc2C(c2ccccc2Cl)=NC1O
REMARK SMILES IDX 1 1 2 2 3 3 4 4 5 5 6 6 7 7 8 8 9 9 10 10 11 11 19 12 20 13
REMARK SMILES IDX 21 15 12 17 13 18 17 19 14 20 16 21 15 22 18 23
REMARK H PARENT 3 14 21 16
ROOT
ATOM      1  O   UNL     1     139.649  97.600 138.540  1.00  0.00    -0.269 OA
ATOM      2  C   UNL     1     140.360  97.657 137.533  1.00  0.00     0.276 C 
ATOM      3  N   UNL     1     139.847  98.216 136.390  1.00  0.00    -0.321 N 
ATOM      4  C   UNL     1     140.486  98.368 135.151  1.00  0.00     0.050 A 
ATOM      5  C   UNL     1     140.001  99.404 134.337  1.00  0.00     0.028 A 
ATOM      6  C   UNL     1     140.598  99.686 133.107  1.00  0.00     0.023 A 
ATOM      7  C   UNL     1     141.677  98.924 132.676  1.00  0.00     0.041 A 
ATOM      8  Cl  UNL     1     142.420  99.274 131.165  1.00  0.00    -0.084 Cl
ATOM      9  C   UNL     1     142.144  97.864 133.448  1.00  0.00     0.033 A 
ATOM     10  C   UNL     1     141.538  97.564 134.681  1.00  0.00     0.026 A 
ATOM     11  C   UNL     1     141.934  96.298 135.369  1.00  0.00     0.079 C 
ATOM     12  N   UNL     1     142.037  96.113 136.638  1.00  0.00    -0.243 NA
ATOM     13  C   UNL     1     141.848  97.237 137.543  1.00  0.00     0.323 C 
ATOM     14  H   UNL     1     138.941  98.643 136.534  1.00  0.00     0.170 HD
ENDROOT
BRANCH  13  15
ATOM     15  O   UNL     1     142.718  98.343 137.341  1.00  0.00    -0.364 OA
ATOM     16  H   UNL     1     142.515  98.678 136.453  1.00  0.00     0.213 HD
ENDBRANCH  13  15
BRANCH  11  17
ATOM     17  C   UNL     1     142.171  95.104 134.515  1.00  0.00     0.019 A 
ATOM     18  C   UNL     1     141.070  94.549 133.847  1.00  0.00     0.012 A 
ATOM     19  C   UNL     1     143.438  94.525 134.388  1.00  0.00     0.050 A 
ATOM     20  C   UNL     1     141.241  93.421 133.047  1.00  0.00     0.001 A 
ATOM     21  C   UNL     1     143.600  93.394 133.583  1.00  0.00     0.021 A 
ATOM     22  C   UNL     1     142.504  92.844 132.915  1.00  0.00     0.002 A 
ATOM     23  Cl  UNL     1     144.841  95.188 135.146  1.00  0.00    -0.084 Cl
ENDBRANCH  11  17
TORSDOF 2
ENDMDL
MODEL 8
REMARK VINA RESULT:    -6.055      2.621      4.049
REMARK INTER + INTRA:          -7.189
REMARK INTER:                  -6.785
REMARK INTRA:                  -0.404
REMARK UNBOUND:                -0.603
REMARK SMILES O=C1Nc2ccc(Cl)cc2C(c2ccccc2Cl)=NC1O
REMARK SMILES IDX 1 1 2 2 3 3 4 4 5 5 6 6 7 7 8 8 9 9 10 10 11 11 19 12 20 13
REMARK SMILES IDX 21 15 12 17 13 18 17 19 14 20 16 21 15 22 18 23
REMARK H PARENT 3 14 21 16
ROOT
ATOM      1  O   UNL     1     144.372  96.528 136.032  1.00  0.00    -0.269 OA
ATOM      2  C   UNL     1     143.187  96.558 135.690  1.00  0.00     0.276 C 
ATOM      3  N   UNL     1     142.833  96.022 134.477  1.00  0.00    -0.321 N 
ATOM      4  C   UNL     1     141.553  95.964 133.909  1.00  0.00     0.050 A 
ATOM      5  C   UNL     1     141.347  94.940 132.971  1.00  0.00     0.028 A 
ATOM      6  C   UNL     1     140.094  94.749 132.384  1.00  0.00     0.023 A 
ATOM      7  C   UNL     1     139.042  95.591 132.721  1.00  0.00     0.041 A 
ATOM      8  Cl  UNL     1     137.496  95.355 132.005  1.00  0.00    -0.084 Cl
ATOM      9  C   UNL     1     139.238  96.641 133.615  1.00  0.00     0.033 A 
ATOM     10  C   UNL     1     140.499  96.849 134.199  1.00  0.00     0.026 A 
ATOM     11  C   UNL     1     140.713  98.103 134.982  1.00  0.00     0.079 C 
ATOM     12  N   UNL     1     141.438  98.236 136.037  1.00  0.00    -0.243 NA
ATOM     13  C   UNL     1     142.065  97.062 136.626  1.00  0.00     0.323 C 
ATOM     14  H   UNL     1     143.597  95.537 134.024  1.00  0.00     0.170 HD
ENDROOT
BRANCH  13  15
ATOM     15  O   UNL     1     141.181  96.020 137.014  1.00  0.00    -0.364 OA
ATOM     16  H   UNL     1     140.289  96.401 136.965  1.00  0.00     0.213 HD
ENDBRANCH  13  15
BRANCH  11  17
ATOM     17  C   UNL     1     140.085  99.347 134.462  1.00  0.00     0.019 A 
ATOM     18  C   UNL     1     139.190 100.027 135.299  1.00  0.00     0.012 A 
ATOM     19  C   UNL     1     140.349  99.824 133.173  1.00  0.00     0.050 A 
ATOM     20  C   UNL     1     138.566 101.189 134.848  1.00  0.00     0.001 A 
ATOM     21  C   UNL     1     139.719 100.990 132.730  1.00  0.00     0.021 A 
ATOM     22  C   UNL     1     138.830 101.670 133.566  1.00  0.00     0.002 A 
ATOM     23  Cl  UNL     1     141.475  99.059 132.112  1.00  0.00    -0.084 Cl
ENDBRANCH  11  17
TORSDOF 2
ENDMDL
MODEL 9
REMARK VINA RESULT:    -6.051      3.072      5.373
REMARK INTER + INTRA:          -7.185
REMARK INTER:                  -6.590
REMARK INTRA:                  -0.595
REMARK UNBOUND:                -0.603
REMARK SMILES O=C1Nc2ccc(Cl)cc2C(c2ccccc2Cl)=NC1O
REMARK SMILES IDX 1 1 2 2 3 3 4 4 5 5 6 6 7 7 8 8 9 9 10 10 11 11 19 12 20 13
REMARK SMILES IDX 21 15 12 17 13 18 17 19 14 20 16 21 15 22 18 23
REMARK H PARENT 3 14 21 16
ROOT
ATOM      1  O   UNL     1     140.297  98.738 137.043  1.00  0.00    -0.269 OA
ATOM      2  C   UNL     1     140.532  98.241 135.938  1.00  0.00     0.276 C 
ATOM      3  N   UNL     1     139.672  97.296 135.440  1.00  0.00    -0.321 N 
ATOM      4  C   UNL     1     139.766  96.613 134.219  1.00  0.00     0.050 A 
ATOM      5  C   UNL     1     138.556  96.130 133.695  1.00  0.00     0.028 A 
ATOM      6  C   UNL     1     138.519  95.487 132.457  1.00  0.00     0.023 A 
ATOM      7  C   UNL     1     139.696  95.309 131.739  1.00  0.00     0.041 A 
ATOM      8  Cl  UNL     1     139.654  94.523 130.210  1.00  0.00    -0.084 Cl
ATOM      9  C   UNL     1     140.912  95.740 132.263  1.00  0.00     0.033 A 
ATOM     10  C   UNL     1     140.959  96.376 133.516  1.00  0.00     0.026 A 
ATOM     11  C   UNL     1     142.300  96.630 134.125  1.00  0.00     0.079 C 
ATOM     12  N   UNL     1     142.639  97.644 134.841  1.00  0.00    -0.243 NA
ATOM     13  C   UNL     1     141.690  98.730 135.038  1.00  0.00     0.323 C 
ATOM     14  H   UNL     1     138.839  97.186 136.004  1.00  0.00     0.170 HD
ENDROOT
BRANCH  13  15
ATOM     15  O   UNL     1     141.218  99.358 133.853  1.00  0.00    -0.364 OA
ATOM     16  H   UNL     1     142.004  99.498 133.301  1.00  0.00     0.213 HD
ENDBRANCH  13  15
BRANCH  11  17
ATOM     17  C   UNL     1     143.338  95.579 133.950  1.00  0.00     0.019 A 
ATOM     18  C   UNL     1     143.221  94.411 134.716  1.00  0.00     0.012 A 
ATOM     19  C   UNL     1     144.415  95.744 133.072  1.00  0.00     0.050 A 
ATOM     20  C   UNL     1     144.178  93.405 134.596  1.00  0.00     0.001 A 
ATOM     21  C   UNL     1     145.369  94.729 132.959  1.00  0.00     0.021 A 
ATOM     22  C   UNL     1     145.251  93.563 133.719  1.00  0.00     0.002 A 
ATOM     23  Cl  UNL     1     144.590  97.137 132.068  1.00  0.00    -0.084 Cl
ENDBRANCH  11  17
TORSDOF 2
ENDMDL
