REMARK Generated from ChEMBL canonical SMILES with RDKit ETKDG + MMFF/UFF
ROOT
ATOM      1 C1   LIG Z   1      -4.114   0.521  -0.648  1.00  0.00     -0.004  C
ATOM      2 C2   LIG Z   1      -3.403  -0.631  -0.045  1.00  0.00      0.134  A
ATOM      3 N3   LIG Z   1      -3.866  -1.865  -0.041  1.00  0.00     -0.135  N
ATOM      4 N4   LIG Z   1      -2.896  -2.687   0.461  1.00  0.00     -0.133  N
ATOM      5 C5   LIG Z   1      -1.852  -1.944   0.760  1.00  0.00      0.159  A
ATOM      6 N6   LIG Z   1      -2.129  -0.619   0.500  1.00  0.00     -0.281  N
ATOM      7 C7   LIG Z   1      -1.286   0.474   0.828  1.00  0.00      0.058  A
ATOM      8 C8   LIG Z   1      -1.863   1.679   1.262  1.00  0.00     -0.036  A
ATOM      9 C9   LIG Z   1      -1.057   2.740   1.683  1.00  0.00     -0.041  A
ATOM     10 C10  LIG Z   1       0.327   2.601   1.686  1.00  0.00      0.041  A
ATOM     11 Cl11 LIG Z   1       1.315   3.902   2.222  1.00  0.00     -0.084 Cl
ATOM     12 C12  LIG Z   1       0.916   1.416   1.256  1.00  0.00     -0.032  A
ATOM     13 C13  LIG Z   1       0.118   0.349   0.804  1.00  0.00      0.026  A
ATOM     14 C14  LIG Z   1       0.833  -0.845   0.246  1.00  0.00      0.075  C
ATOM     15 C15  LIG Z   1       1.976  -0.615  -0.698  1.00  0.00      0.000  A
ATOM     16 C16  LIG Z   1       3.081  -1.472  -0.648  1.00  0.00     -0.053  A
ATOM     17 C17  LIG Z   1       4.157  -1.280  -1.517  1.00  0.00     -0.062  A
ATOM     18 C18  LIG Z   1       4.127  -0.239  -2.444  1.00  0.00     -0.062  A
ATOM     19 C19  LIG Z   1       3.019   0.606  -2.511  1.00  0.00     -0.062  A
ATOM     20 C20  LIG Z   1       1.940   0.418  -1.645  1.00  0.00     -0.053  A
ATOM     21 N21  LIG Z   1       0.541  -2.072   0.513  1.00  0.00     -0.276  N
ATOM     22 C22  LIG Z   1      -0.585  -2.388   1.381  1.00  0.00      0.100  C
ENDROOT
TORSDOF 0
