MODEL 1
REMARK VINA RESULT:    -7.333      0.000      0.000
REMARK INTER + INTRA:          -9.576
REMARK INTER:                  -8.619
REMARK INTRA:                  -0.956
REMARK UNBOUND:                -0.956
REMARK SMILES CN1CCN(C(=O)OC2c3nccnc3C(=O)N2c2ccc(Cl)cn2)CC1
REMARK SMILES IDX 9 1 10 2 11 3 12 4 13 5 14 6 15 7 16 8 17 9 18 10 8 11 6 12
REMARK SMILES IDX 2 13 3 14 27 15 4 16 26 17 5 18 7 19 1 20 19 21 20 22 25 23
REMARK SMILES IDX 21 24 24 25 22 26 23 27
REMARK H PARENT
ROOT
ATOM      1  C   UNL     1     142.063  96.136 137.963  1.00  0.00     0.338 C 
ATOM      2  C   UNL     1     142.161  96.117 139.468  1.00  0.00     0.134 A 
ATOM      3  N   UNL     1     141.223  96.497 140.367  1.00  0.00    -0.251 NA
ATOM      4  C   UNL     1     141.622  96.375 141.660  1.00  0.00     0.131 A 
ATOM      5  C   UNL     1     142.885  95.905 142.024  1.00  0.00     0.132 A 
ATOM      6  N   UNL     1     143.822  95.528 141.119  1.00  0.00    -0.247 NA
ATOM      7  C   UNL     1     143.404  95.659 139.844  1.00  0.00     0.156 A 
ATOM      8  C   UNL     1     144.177  95.325 138.638  1.00  0.00     0.283 C 
ATOM      9  O   UNL     1     145.311  94.884 138.661  1.00  0.00    -0.267 OA
ATOM     10  N   UNL     1     143.352  95.589 137.552  1.00  0.00    -0.248 N 
ENDROOT
BRANCH   1  11
ATOM     11  O   UNL     1     141.979  97.490 137.528  1.00  0.00    -0.419 OA
BRANCH  11  12
ATOM     12  C   UNL     1     140.784  97.823 136.980  1.00  0.00     0.412 C 
ATOM     13  N   UNL     1     141.080  98.617 132.722  1.00  0.00    -0.303 NA
ATOM     14  C   UNL     1     142.114  99.078 133.671  1.00  0.00     0.106 C 
ATOM     15  C   UNL     1     139.866  98.115 133.401  1.00  0.00     0.106 C 
ATOM     16  C   UNL     1     142.187  98.225 134.950  1.00  0.00     0.138 C 
ATOM     17  C   UNL     1     139.719  98.525 134.879  1.00  0.00     0.138 C 
ATOM     18  N   UNL     1     140.906  98.190 135.657  1.00  0.00    -0.306 N 
ATOM     19  O   UNL     1     139.719  97.798 137.584  1.00  0.00    -0.224 OA
ATOM     20  C   UNL     1     140.769  99.661 131.749  1.00  0.00     0.105 C 
ENDBRANCH  11  12
ENDBRANCH   1  11
BRANCH  10  21
ATOM     21  C   UNL     1     143.618  95.357 136.192  1.00  0.00     0.138 A 
ATOM     22  C   UNL     1     142.760  94.621 135.379  1.00  0.00     0.049 A 
ATOM     23  N   UNL     1     144.758  95.898 135.697  1.00  0.00    -0.237 NA
ATOM     24  C   UNL     1     143.078  94.428 134.031  1.00  0.00     0.026 A 
ATOM     25  C   UNL     1     145.048  95.697 134.387  1.00  0.00     0.134 A 
ATOM     26  C   UNL     1     144.245  94.977 133.524  1.00  0.00     0.059 A 
ATOM     27  Cl  UNL     1     144.675  94.764 131.879  1.00  0.00    -0.083 Cl
ENDBRANCH  10  21
TORSDOF 3
ENDMDL
MODEL 2
REMARK VINA RESULT:    -7.196      2.956      5.313
REMARK INTER + INTRA:          -9.414
REMARK INTER:                  -9.105
REMARK INTRA:                  -0.309
REMARK UNBOUND:                -0.956
REMARK SMILES CN1CCN(C(=O)OC2c3nccnc3C(=O)N2c2ccc(Cl)cn2)CC1
REMARK SMILES IDX 9 1 10 2 11 3 12 4 13 5 14 6 15 7 16 8 17 9 18 10 8 11 6 12
REMARK SMILES IDX 2 13 3 14 27 15 4 16 26 17 5 18 7 19 1 20 19 21 20 22 25 23
REMARK SMILES IDX 21 24 24 25 22 26 23 27
REMARK H PARENT
ROOT
ATOM      1  C   UNL     1     143.000  97.045 137.473  1.00  0.00     0.338 C 
ATOM      2  C   UNL     1     143.783  96.716 136.225  1.00  0.00     0.134 A 
ATOM      3  N   UNL     1     143.644  97.254 134.991  1.00  0.00    -0.251 NA
ATOM      4  C   UNL     1     144.492  96.732 134.068  1.00  0.00     0.131 A 
ATOM      5  C   UNL     1     145.419  95.732 134.367  1.00  0.00     0.132 A 
ATOM      6  N   UNL     1     145.552  95.195 135.604  1.00  0.00    -0.247 NA
ATOM      7  C   UNL     1     144.700  95.726 136.504  1.00  0.00     0.156 A 
ATOM      8  C   UNL     1     144.603  95.369 137.926  1.00  0.00     0.283 C 
ATOM      9  O   UNL     1     145.301  94.528 138.462  1.00  0.00    -0.267 OA
ATOM     10  N   UNL     1     143.617  96.180 138.474  1.00  0.00    -0.248 N 
ENDROOT
BRANCH   1  11
ATOM     11  O   UNL     1     141.649  96.637 137.285  1.00  0.00    -0.419 OA
BRANCH  11  12
ATOM     12  C   UNL     1     140.927  97.463 136.487  1.00  0.00     0.412 C 
ATOM     13  N   UNL     1     139.053  95.355 133.187  1.00  0.00    -0.303 NA
ATOM     14  C   UNL     1     140.428  95.043 133.627  1.00  0.00     0.106 C 
ATOM     15  C   UNL     1     138.525  96.592 133.803  1.00  0.00     0.106 C 
ATOM     16  C   UNL     1     140.688  95.396 135.101  1.00  0.00     0.138 C 
ATOM     17  C   UNL     1     139.582  97.520 134.430  1.00  0.00     0.138 C 
ATOM     18  N   UNL     1     140.435  96.811 135.377  1.00  0.00    -0.306 N 
ATOM     19  O   UNL     1     140.728  98.649 136.723  1.00  0.00    -0.224 OA
ATOM     20  C   UNL     1     138.972  95.395 131.729  1.00  0.00     0.105 C 
ENDBRANCH  11  12
ENDBRANCH   1  11
BRANCH  10  21
ATOM     21  C   UNL     1     143.217  96.260 139.818  1.00  0.00     0.138 A 
ATOM     22  C   UNL     1     144.011  96.850 140.799  1.00  0.00     0.049 A 
ATOM     23  N   UNL     1     142.003  95.741 140.121  1.00  0.00    -0.237 NA
ATOM     24  C   UNL     1     143.555  96.903 142.120  1.00  0.00     0.026 A 
ATOM     25  C   UNL     1     141.580  95.802 141.409  1.00  0.00     0.134 A 
ATOM     26  C   UNL     1     142.315  96.369 142.432  1.00  0.00     0.059 A 
ATOM     27  Cl  UNL     1     141.718  96.410 144.038  1.00  0.00    -0.083 Cl
ENDBRANCH  10  21
TORSDOF 3
ENDMDL
MODEL 3
REMARK VINA RESULT:    -7.056      2.123      4.372
REMARK INTER + INTRA:          -9.249
REMARK INTER:                  -8.279
REMARK INTRA:                  -0.971
REMARK UNBOUND:                -0.956
REMARK SMILES CN1CCN(C(=O)OC2c3nccnc3C(=O)N2c2ccc(Cl)cn2)CC1
REMARK SMILES IDX 9 1 10 2 11 3 12 4 13 5 14 6 15 7 16 8 17 9 18 10 8 11 6 12
REMARK SMILES IDX 2 13 3 14 27 15 4 16 26 17 5 18 7 19 1 20 19 21 20 22 25 23
REMARK SMILES IDX 21 24 24 25 22 26 23 27
REMARK H PARENT
ROOT
ATOM      1  C   UNL     1     142.921  96.726 136.951  1.00  0.00     0.338 C 
ATOM      2  C   UNL     1     142.856  96.350 138.411  1.00  0.00     0.134 A 
ATOM      3  N   UNL     1     143.813  95.752 139.158  1.00  0.00    -0.251 NA
ATOM      4  C   UNL     1     143.443  95.530 140.446  1.00  0.00     0.131 A 
ATOM      5  C   UNL     1     142.189  95.884 140.948  1.00  0.00     0.132 A 
ATOM      6  N   UNL     1     141.233  96.481 140.194  1.00  0.00    -0.247 NA
ATOM      7  C   UNL     1     141.622  96.690 138.921  1.00  0.00     0.156 A 
ATOM      8  C   UNL     1     140.824  97.324 137.862  1.00  0.00     0.283 C 
ATOM      9  O   UNL     1     139.691  97.739 138.024  1.00  0.00    -0.267 OA
ATOM     10  N   UNL     1     141.624  97.357 136.726  1.00  0.00    -0.248 N 
ENDROOT
BRANCH   1  11
ATOM     11  O   UNL     1     142.992  95.534 136.176  1.00  0.00    -0.419 OA
BRANCH  11  12
ATOM     12  C   UNL     1     144.142  95.399 135.470  1.00  0.00     0.412 C 
ATOM     13  N   UNL     1     143.438  95.127 131.194  1.00  0.00    -0.303 NA
ATOM     14  C   UNL     1     142.565  94.444 132.170  1.00  0.00     0.106 C 
ATOM     15  C   UNL     1     144.671  95.662 131.811  1.00  0.00     0.106 C 
ATOM     16  C   UNL     1     142.560  95.115 133.554  1.00  0.00     0.138 C 
ATOM     17  C   UNL     1     145.021  95.085 133.196  1.00  0.00     0.138 C 
ATOM     18  N   UNL     1     143.904  95.193 134.128  1.00  0.00    -0.306 N 
ATOM     19  O   UNL     1     145.262  95.458 135.961  1.00  0.00    -0.224 OA
ATOM     20  C   UNL     1     143.730  94.254 130.061  1.00  0.00     0.105 C 
ENDBRANCH  11  12
ENDBRANCH   1  11
BRANCH  10  21
ATOM     21  C   UNL     1     141.328  97.935 135.481  1.00  0.00     0.138 A 
ATOM     22  C   UNL     1     140.058  97.874 134.913  1.00  0.00     0.049 A 
ATOM     23  N   UNL     1     142.344  98.573 134.852  1.00  0.00    -0.237 NA
ATOM     24  C   UNL     1     139.825  98.473 133.671  1.00  0.00     0.026 A 
ATOM     25  C   UNL     1     142.097  99.146 133.647  1.00  0.00     0.134 A 
ATOM     26  C   UNL     1     140.863  99.122 133.024  1.00  0.00     0.059 A 
ATOM     27  Cl  UNL     1     140.624  99.868 131.500  1.00  0.00    -0.083 Cl
ENDBRANCH  10  21
TORSDOF 3
ENDMDL
MODEL 4
REMARK VINA RESULT:    -6.842      2.701      5.236
REMARK INTER + INTRA:          -8.998
REMARK INTER:                  -8.168
REMARK INTRA:                  -0.830
REMARK UNBOUND:                -0.956
REMARK SMILES CN1CCN(C(=O)OC2c3nccnc3C(=O)N2c2ccc(Cl)cn2)CC1
REMARK SMILES IDX 9 1 10 2 11 3 12 4 13 5 14 6 15 7 16 8 17 9 18 10 8 11 6 12
REMARK SMILES IDX 2 13 3 14 27 15 4 16 26 17 5 18 7 19 1 20 19 21 20 22 25 23
REMARK SMILES IDX 21 24 24 25 22 26 23 27
REMARK H PARENT
ROOT
ATOM      1  C   UNL     1     143.462  96.927 135.614  1.00  0.00     0.338 C 
ATOM      2  C   UNL     1     144.185  96.683 134.313  1.00  0.00     0.134 A 
ATOM      3  N   UNL     1     144.063  97.369 133.153  1.00  0.00    -0.251 NA
ATOM      4  C   UNL     1     144.843  96.892 132.149  1.00  0.00     0.131 A 
ATOM      5  C   UNL     1     145.690  95.792 132.302  1.00  0.00     0.132 A 
ATOM      6  N   UNL     1     145.806  95.106 133.466  1.00  0.00    -0.247 NA
ATOM      7  C   UNL     1     145.022  95.597 134.447  1.00  0.00     0.156 A 
ATOM      8  C   UNL     1     144.929  95.087 135.822  1.00  0.00     0.283 C 
ATOM      9  O   UNL     1     145.567  94.136 136.236  1.00  0.00    -0.267 OA
ATOM     10  N   UNL     1     144.028  95.906 136.490  1.00  0.00    -0.248 N 
ENDROOT
BRANCH   1  11
ATOM     11  O   UNL     1     142.078  96.654 135.425  1.00  0.00    -0.419 OA
BRANCH  11  12
ATOM     12  C   UNL     1     141.315  97.761 135.243  1.00  0.00     0.412 C 
ATOM     13  N   UNL     1     138.927  97.546 131.623  1.00  0.00    -0.303 NA
ATOM     14  C   UNL     1     140.324  97.068 131.661  1.00  0.00     0.106 C 
ATOM     15  C   UNL     1     138.554  98.311 132.832  1.00  0.00     0.106 C 
ATOM     16  C   UNL     1     140.784  96.648 133.067  1.00  0.00     0.138 C 
ATOM     17  C   UNL     1     139.734  98.816 133.684  1.00  0.00     0.138 C 
ATOM     18  N   UNL     1     140.652  97.738 134.034  1.00  0.00    -0.306 N 
ATOM     19  O   UNL     1     141.218  98.672 136.055  1.00  0.00    -0.224 OA
ATOM     20  C   UNL     1     138.671  98.300 130.399  1.00  0.00     0.105 C 
ENDBRANCH  11  12
ENDBRANCH   1  11
BRANCH  10  21
ATOM     21  C   UNL     1     143.667  95.862 137.847  1.00  0.00     0.138 A 
ATOM     22  C   UNL     1     144.261  96.681 138.804  1.00  0.00     0.049 A 
ATOM     23  N   UNL     1     142.694  94.983 138.187  1.00  0.00    -0.237 NA
ATOM     24  C   UNL     1     143.856  96.594 140.139  1.00  0.00     0.026 A 
ATOM     25  C   UNL     1     142.316  94.913 139.488  1.00  0.00     0.134 A 
ATOM     26  C   UNL     1     142.864  95.693 140.490  1.00  0.00     0.059 A 
ATOM     27  Cl  UNL     1     142.337  95.551 142.114  1.00  0.00    -0.083 Cl
ENDBRANCH  10  21
TORSDOF 3
ENDMDL
MODEL 5
REMARK VINA RESULT:    -6.769      2.263      5.847
REMARK INTER + INTRA:          -8.913
REMARK INTER:                  -7.927
REMARK INTRA:                  -0.986
REMARK UNBOUND:                -0.956
REMARK SMILES CN1CCN(C(=O)OC2c3nccnc3C(=O)N2c2ccc(Cl)cn2)CC1
REMARK SMILES IDX 9 1 10 2 11 3 12 4 13 5 14 6 15 7 16 8 17 9 18 10 8 11 6 12
REMARK SMILES IDX 2 13 3 14 27 15 4 16 26 17 5 18 7 19 1 20 19 21 20 22 25 23
REMARK SMILES IDX 21 24 24 25 22 26 23 27
REMARK H PARENT
ROOT
ATOM      1  C   UNL     1     143.759  96.228 136.135  1.00  0.00     0.338 C 
ATOM      2  C   UNL     1     142.481  96.956 135.798  1.00  0.00     0.134 A 
ATOM      3  N   UNL     1     141.887  97.956 136.490  1.00  0.00    -0.251 NA
ATOM      4  C   UNL     1     140.729  98.395 135.934  1.00  0.00     0.131 A 
ATOM      5  C   UNL     1     140.201  97.860 134.757  1.00  0.00     0.132 A 
ATOM      6  N   UNL     1     140.798  96.856 134.069  1.00  0.00    -0.247 NA
ATOM      7  C   UNL     1     141.945  96.436 134.641  1.00  0.00     0.156 A 
ATOM      8  C   UNL     1     142.830  95.377 134.136  1.00  0.00     0.283 C 
ATOM      9  O   UNL     1     142.617  94.743 133.118  1.00  0.00    -0.267 OA
ATOM     10  N   UNL     1     143.900  95.298 135.019  1.00  0.00    -0.248 N 
ENDROOT
BRANCH   1  11
ATOM     11  O   UNL     1     143.557  95.482 137.331  1.00  0.00    -0.419 OA
BRANCH  11  12
ATOM     12  C   UNL     1     144.233  95.962 138.404  1.00  0.00     0.412 C 
ATOM     13  N   UNL     1     141.786  96.065 141.989  1.00  0.00    -0.303 NA
ATOM     14  C   UNL     1     141.244  96.444 140.668  1.00  0.00     0.106 C 
ATOM     15  C   UNL     1     143.257  95.915 141.979  1.00  0.00     0.106 C 
ATOM     16  C   UNL     1     141.990  95.786 139.495  1.00  0.00     0.138 C 
ATOM     17  C   UNL     1     143.978  96.552 140.777  1.00  0.00     0.138 C 
ATOM     18  N   UNL     1     143.418  96.105 139.507  1.00  0.00    -0.306 N 
ATOM     19  O   UNL     1     145.427  96.234 138.401  1.00  0.00    -0.224 OA
ATOM     20  C   UNL     1     141.340  97.000 143.019  1.00  0.00     0.105 C 
ENDBRANCH  11  12
ENDBRANCH   1  11
BRANCH  10  21
ATOM     21  C   UNL     1     145.042  94.486 134.918  1.00  0.00     0.138 A 
ATOM     22  C   UNL     1     144.963  93.110 134.714  1.00  0.00     0.049 A 
ATOM     23  N   UNL     1     146.240  95.110 135.020  1.00  0.00    -0.237 NA
ATOM     24  C   UNL     1     146.137  92.356 134.618  1.00  0.00     0.026 A 
ATOM     25  C   UNL     1     147.366  94.359 134.925  1.00  0.00     0.134 A 
ATOM     26  C   UNL     1     147.363  92.992 134.726  1.00  0.00     0.059 A 
ATOM     27  Cl  UNL     1     148.826  92.106 134.617  1.00  0.00    -0.083 Cl
ENDBRANCH  10  21
TORSDOF 3
ENDMDL
MODEL 6
REMARK VINA RESULT:    -6.649      3.323      5.445
REMARK INTER + INTRA:          -8.771
REMARK INTER:                  -7.877
REMARK INTRA:                  -0.894
REMARK UNBOUND:                -0.956
REMARK SMILES CN1CCN(C(=O)OC2c3nccnc3C(=O)N2c2ccc(Cl)cn2)CC1
REMARK SMILES IDX 9 1 10 2 11 3 12 4 13 5 14 6 15 7 16 8 17 9 18 10 8 11 6 12
REMARK SMILES IDX 2 13 3 14 27 15 4 16 26 17 5 18 7 19 1 20 19 21 20 22 25 23
REMARK SMILES IDX 21 24 24 25 22 26 23 27
REMARK H PARENT
ROOT
ATOM      1  C   UNL     1     143.237  96.507 134.001  1.00  0.00     0.338 C 
ATOM      2  C   UNL     1     144.267  95.757 134.810  1.00  0.00     0.134 A 
ATOM      3  N   UNL     1     145.142  94.821 134.377  1.00  0.00    -0.251 NA
ATOM      4  C   UNL     1     145.934  94.316 135.357  1.00  0.00     0.131 A 
ATOM      5  C   UNL     1     145.848  94.725 136.689  1.00  0.00     0.132 A 
ATOM      6  N   UNL     1     144.967  95.662 137.118  1.00  0.00    -0.247 NA
ATOM      7  C   UNL     1     144.192  96.148 136.129  1.00  0.00     0.156 A 
ATOM      8  C   UNL     1     143.152  97.178 136.265  1.00  0.00     0.283 C 
ATOM      9  O   UNL     1     142.869  97.719 137.319  1.00  0.00    -0.267 OA
ATOM     10  N   UNL     1     142.631  97.388 134.995  1.00  0.00    -0.248 N 
ENDROOT
BRANCH   1  11
ATOM     11  O   UNL     1     142.254  95.584 133.545  1.00  0.00    -0.419 OA
BRANCH  11  12
ATOM     12  C   UNL     1     142.131  95.527 132.196  1.00  0.00     0.412 C 
ATOM     13  N   UNL     1     138.131  96.551 130.853  1.00  0.00    -0.303 NA
ATOM     14  C   UNL     1     138.358  95.723 132.055  1.00  0.00     0.106 C 
ATOM     15  C   UNL     1     139.362  96.749 130.058  1.00  0.00     0.106 C 
ATOM     16  C   UNL     1     139.725  95.972 132.714  1.00  0.00     0.138 C 
ATOM     17  C   UNL     1     140.511  95.770 130.363  1.00  0.00     0.138 C 
ATOM     18  N   UNL     1     140.831  95.735 131.786  1.00  0.00    -0.306 N 
ATOM     19  O   UNL     1     143.062  95.319 131.428  1.00  0.00    -0.224 OA
ATOM     20  C   UNL     1     137.042  96.006 130.047  1.00  0.00     0.105 C 
ENDBRANCH  11  12
ENDBRANCH   1  11
BRANCH  10  21
ATOM     21  C   UNL     1     141.666  98.332 134.605  1.00  0.00     0.138 A 
ATOM     22  C   UNL     1     141.717  98.988 133.378  1.00  0.00     0.049 A 
ATOM     23  N   UNL     1     140.663  98.571 135.484  1.00  0.00    -0.237 NA
ATOM     24  C   UNL     1     140.724  99.914 133.045  1.00  0.00     0.026 A 
ATOM     25  C   UNL     1     139.710  99.475 135.142  1.00  0.00     0.134 A 
ATOM     26  C   UNL     1     139.700 100.164 133.944  1.00  0.00     0.059 A 
ATOM     27  Cl  UNL     1     138.463 101.293 133.579  1.00  0.00    -0.083 Cl
ENDBRANCH  10  21
TORSDOF 3
ENDMDL
MODEL 7
REMARK VINA RESULT:    -6.560      2.817      6.400
REMARK INTER + INTRA:          -8.667
REMARK INTER:                  -8.059
REMARK INTRA:                  -0.608
REMARK UNBOUND:                -0.956
REMARK SMILES CN1CCN(C(=O)OC2c3nccnc3C(=O)N2c2ccc(Cl)cn2)CC1
REMARK SMILES IDX 9 1 10 2 11 3 12 4 13 5 14 6 15 7 16 8 17 9 18 10 8 11 6 12
REMARK SMILES IDX 2 13 3 14 27 15 4 16 26 17 5 18 7 19 1 20 19 21 20 22 25 23
REMARK SMILES IDX 21 24 24 25 22 26 23 27
REMARK H PARENT
ROOT
ATOM      1  C   UNL     1     142.125  96.342 135.769  1.00  0.00     0.338 C 
ATOM      2  C   UNL     1     141.355  96.935 134.616  1.00  0.00     0.134 A 
ATOM      3  N   UNL     1     141.347  96.530 133.325  1.00  0.00    -0.251 NA
ATOM      4  C   UNL     1     140.559  97.285 132.518  1.00  0.00     0.131 A 
ATOM      5  C   UNL     1     139.827  98.380 132.980  1.00  0.00     0.132 A 
ATOM      6  N   UNL     1     139.840  98.784 134.274  1.00  0.00    -0.247 NA
ATOM      7  C   UNL     1     140.630  98.021 135.056  1.00  0.00     0.156 A 
ATOM      8  C   UNL     1     140.847  98.190 136.500  1.00  0.00     0.283 C 
ATOM      9  O   UNL     1     140.324  99.065 137.166  1.00  0.00    -0.267 OA
ATOM     10  N   UNL     1     141.706  97.172 136.894  1.00  0.00    -0.248 N 
ENDROOT
BRANCH   1  11
ATOM     11  O   UNL     1     143.516  96.545 135.542  1.00  0.00    -0.419 OA
BRANCH  11  12
ATOM     12  C   UNL     1     144.233  95.398 135.431  1.00  0.00     0.412 C 
ATOM     13  N   UNL     1     146.700  95.328 131.859  1.00  0.00    -0.303 NA
ATOM     14  C   UNL     1     145.325  95.868 131.843  1.00  0.00     0.106 C 
ATOM     15  C   UNL     1     147.014  94.609 133.112  1.00  0.00     0.106 C 
ATOM     16  C   UNL     1     144.856  96.377 133.216  1.00  0.00     0.138 C 
ATOM     17  C   UNL     1     145.796  94.199 133.962  1.00  0.00     0.138 C 
ATOM     18  N   UNL     1     144.920  95.331 134.238  1.00  0.00    -0.306 N 
ATOM     19  O   UNL     1     144.272  94.525 136.289  1.00  0.00    -0.224 OA
ATOM     20  C   UNL     1     146.946  94.503 130.680  1.00  0.00     0.105 C 
ENDBRANCH  11  12
ENDBRANCH   1  11
BRANCH  10  21
ATOM     21  C   UNL     1     142.146  96.872 138.194  1.00  0.00     0.138 A 
ATOM     22  C   UNL     1     143.492  96.902 138.551  1.00  0.00     0.049 A 
ATOM     23  N   UNL     1     141.190  96.558 139.100  1.00  0.00    -0.237 NA
ATOM     24  C   UNL     1     143.868  96.597 139.863  1.00  0.00     0.026 A 
ATOM     25  C   UNL     1     141.575  96.264 140.368  1.00  0.00     0.134 A 
ATOM     26  C   UNL     1     142.891  96.271 140.791  1.00  0.00     0.059 A 
ATOM     27  Cl  UNL     1     143.306  95.889 142.409  1.00  0.00    -0.083 Cl
ENDBRANCH  10  21
TORSDOF 3
ENDMDL
MODEL 8
REMARK VINA RESULT:    -6.505      2.849      6.716
REMARK INTER + INTRA:          -8.603
REMARK INTER:                  -8.306
REMARK INTRA:                  -0.297
REMARK UNBOUND:                -0.956
REMARK SMILES CN1CCN(C(=O)OC2c3nccnc3C(=O)N2c2ccc(Cl)cn2)CC1
REMARK SMILES IDX 9 1 10 2 11 3 12 4 13 5 14 6 15 7 16 8 17 9 18 10 8 11 6 12
REMARK SMILES IDX 2 13 3 14 27 15 4 16 26 17 5 18 7 19 1 20 19 21 20 22 25 23
REMARK SMILES IDX 21 24 24 25 22 26 23 27
REMARK H PARENT
ROOT
ATOM      1  C   UNL     1     142.335  97.592 134.054  1.00  0.00     0.338 C 
ATOM      2  C   UNL     1     141.514  98.507 133.179  1.00  0.00     0.134 A 
ATOM      3  N   UNL     1     141.608  98.682 131.840  1.00  0.00    -0.251 NA
ATOM      4  C   UNL     1     140.733  99.595 131.345  1.00  0.00     0.131 A 
ATOM      5  C   UNL     1     139.823 100.288 132.145  1.00  0.00     0.132 A 
ATOM      6  N   UNL     1     139.735 100.111 133.487  1.00  0.00    -0.247 NA
ATOM      7  C   UNL     1     140.613  99.202 133.956  1.00  0.00     0.156 A 
ATOM      8  C   UNL     1     140.760  98.778 135.356  1.00  0.00     0.283 C 
ATOM      9  O   UNL     1     140.086  99.216 136.270  1.00  0.00    -0.267 OA
ATOM     10  N   UNL     1     141.758  97.812 135.376  1.00  0.00    -0.248 N 
ENDROOT
BRANCH   1  11
ATOM     11  O   UNL     1     143.682  98.054 134.059  1.00  0.00    -0.419 OA
BRANCH  11  12
ATOM     12  C   UNL     1     144.439  97.566 133.044  1.00  0.00     0.412 C 
ATOM     13  N   UNL     1     145.902  93.559 133.853  1.00  0.00    -0.303 NA
ATOM     14  C   UNL     1     145.862  94.597 134.903  1.00  0.00     0.106 C 
ATOM     15  C   UNL     1     145.648  94.105 132.502  1.00  0.00     0.106 C 
ATOM     16  C   UNL     1     144.799  95.679 134.646  1.00  0.00     0.138 C 
ATOM     17  C   UNL     1     145.798  95.632 132.368  1.00  0.00     0.138 C 
ATOM     18  N   UNL     1     144.998  96.345 133.358  1.00  0.00    -0.306 N 
ATOM     19  O   UNL     1     144.606  98.135 131.973  1.00  0.00    -0.224 OA
ATOM     20  C   UNL     1     147.154  92.810 133.913  1.00  0.00     0.105 C 
ENDBRANCH  11  12
ENDBRANCH   1  11
BRANCH  10  21
ATOM     21  C   UNL     1     142.203  97.056 136.473  1.00  0.00     0.138 A 
ATOM     22  C   UNL     1     143.005  97.597 137.476  1.00  0.00     0.049 A 
ATOM     23  N   UNL     1     141.803  95.762 136.520  1.00  0.00    -0.237 NA
ATOM     24  C   UNL     1     143.412  96.794 138.546  1.00  0.00     0.026 A 
ATOM     25  C   UNL     1     142.211  95.000 137.566  1.00  0.00     0.134 A 
ATOM     26  C   UNL     1     143.008  95.469 138.593  1.00  0.00     0.059 A 
ATOM     27  Cl  UNL     1     143.485  94.449 139.884  1.00  0.00    -0.083 Cl
ENDBRANCH  10  21
TORSDOF 3
ENDMDL
MODEL 9
REMARK VINA RESULT:    -6.407      2.620      5.692
REMARK INTER + INTRA:          -8.487
REMARK INTER:                  -7.433
REMARK INTRA:                  -1.054
REMARK UNBOUND:                -0.956
REMARK SMILES CN1CCN(C(=O)OC2c3nccnc3C(=O)N2c2ccc(Cl)cn2)CC1
REMARK SMILES IDX 9 1 10 2 11 3 12 4 13 5 14 6 15 7 16 8 17 9 18 10 8 11 6 12
REMARK SMILES IDX 2 13 3 14 27 15 4 16 26 17 5 18 7 19 1 20 19 21 20 22 25 23
REMARK SMILES IDX 21 24 24 25 22 26 23 27
REMARK H PARENT
ROOT
ATOM      1  C   UNL     1     143.296  97.080 135.626  1.00  0.00     0.338 C 
ATOM      2  C   UNL     1     143.419  96.706 137.082  1.00  0.00     0.134 A 
ATOM      3  N   UNL     1     144.543  96.395 137.769  1.00  0.00    -0.251 NA
ATOM      4  C   UNL     1     144.322  96.085 139.072  1.00  0.00     0.131 A 
ATOM      5  C   UNL     1     143.049  96.086 139.647  1.00  0.00     0.132 A 
ATOM      6  N   UNL     1     141.926  96.396 138.954  1.00  0.00    -0.247 NA
ATOM      7  C   UNL     1     142.170  96.698 137.664  1.00  0.00     0.156 A 
ATOM      8  C   UNL     1     141.171  97.087 136.658  1.00  0.00     0.283 C 
ATOM      9  O   UNL     1     139.979  97.177 136.888  1.00  0.00    -0.267 OA
ATOM     10  N   UNL     1     141.866  97.332 135.481  1.00  0.00    -0.248 N 
ENDROOT
BRANCH   1  11
ATOM     11  O   UNL     1     143.646  95.949 134.834  1.00  0.00    -0.419 OA
BRANCH  11  12
ATOM     12  C   UNL     1     144.654  96.178 133.956  1.00  0.00     0.412 C 
ATOM     13  N   UNL     1     147.803  93.203 134.240  1.00  0.00    -0.303 NA
ATOM     14  C   UNL     1     147.137  93.746 135.441  1.00  0.00     0.106 C 
ATOM     15  C   UNL     1     147.467  93.957 133.013  1.00  0.00     0.106 C 
ATOM     16  C   UNL     1     145.716  94.265 135.166  1.00  0.00     0.138 C 
ATOM     17  C   UNL     1     146.857  95.353 133.242  1.00  0.00     0.138 C 
ATOM     18  N   UNL     1     145.703  95.302 134.133  1.00  0.00    -0.306 N 
ATOM     19  O   UNL     1     144.637  97.055 133.101  1.00  0.00    -0.224 OA
ATOM     20  C   UNL     1     149.246  93.110 134.445  1.00  0.00     0.105 C 
ENDBRANCH  11  12
ENDBRANCH   1  11
BRANCH  10  21
ATOM     21  C   UNL     1     141.354  97.802 134.260  1.00  0.00     0.138 A 
ATOM     22  C   UNL     1     141.532  99.116 133.834  1.00  0.00     0.049 A 
ATOM     23  N   UNL     1     140.677  96.907 133.501  1.00  0.00    -0.237 NA
ATOM     24  C   UNL     1     141.001  99.524 132.606  1.00  0.00     0.026 A 
ATOM     25  C   UNL     1     140.169  97.324 132.314  1.00  0.00     0.134 A 
ATOM     26  C   UNL     1     140.306  98.611 131.830  1.00  0.00     0.059 A 
ATOM     27  Cl  UNL     1     139.636  99.068 130.320  1.00  0.00    -0.083 Cl
ENDBRANCH  10  21
TORSDOF 3
ENDMDL
