MODEL 1
REMARK VINA RESULT:    -9.171      0.000      0.000
REMARK INTER + INTRA:         -11.948
REMARK INTER:                 -11.315
REMARK INTRA:                  -0.633
REMARK UNBOUND:                -0.633
REMARK SMILES CCN(C(C)=O)c1cccc(-c2ccnc3c(C#N)cnn23)c1
REMARK SMILES IDX 3 1 2 2 1 3 4 4 6 5 5 6 7 7 8 8 23 9 9 10 11 11 10 12 12 13
REMARK SMILES IDX 13 14 22 15 14 16 21 17 16 18 15 19 20 20 17 21 18 22 19 23
REMARK H PARENT
ROOT
ATOM      1  N   UNL     1     118.692 156.933 106.961  1.00  0.00    -0.313 N 
ENDROOT
BRANCH   1   2
ATOM      2  C   UNL     1     118.817 157.396 105.566  1.00  0.00     0.122 C 
ATOM      3  C   UNL     1     120.001 156.762 104.845  1.00  0.00     0.028 C 
ENDBRANCH   1   2
BRANCH   1   4
ATOM      4  C   UNL     1     118.101 155.685 107.249  1.00  0.00     0.223 C 
ATOM      5  O   UNL     1     118.450 154.918 108.149  1.00  0.00    -0.275 OA
ATOM      6  C   UNL     1     116.936 155.259 106.381  1.00  0.00     0.115 C 
ENDBRANCH   1   4
BRANCH   1   7
ATOM      7  C   UNL     1     119.121 157.832 108.019  1.00  0.00     0.044 A 
ATOM      8  C   UNL     1     120.346 158.512 107.961  1.00  0.00     0.026 A 
ATOM      9  C   UNL     1     118.310 158.092 109.142  1.00  0.00     0.036 A 
ATOM     10  C   UNL     1     120.761 159.375 108.981  1.00  0.00     0.003 A 
ATOM     11  C   UNL     1     118.706 158.963 110.177  1.00  0.00     0.002 A 
ATOM     12  C   UNL     1     119.949 159.596 110.087  1.00  0.00     0.010 A 
BRANCH  11  13
ATOM     13  C   UNL     1     117.821 159.202 111.339  1.00  0.00     0.076 C 
ATOM     14  C   UNL     1     117.169 160.378 111.429  1.00  0.00     0.049 C 
ATOM     15  N   UNL     1     117.619 158.232 112.342  1.00  0.00    -0.213 N 
ATOM     16  C   UNL     1     116.288 160.550 112.612  1.00  0.00     0.116 C 
ATOM     17  N   UNL     1     118.157 156.981 112.435  1.00  0.00    -0.173 NA
ATOM     18  C   UNL     1     116.763 158.494 113.427  1.00  0.00     0.173 A 
ATOM     19  N   UNL     1     116.089 159.679 113.553  1.00  0.00    -0.236 NA
ATOM     20  C   UNL     1     117.663 156.481 113.569  1.00  0.00     0.157 A 
ATOM     21  C   UNL     1     116.798 157.367 114.217  1.00  0.00     0.117 A 
ATOM     22  C   UNL     1     116.095 157.156 115.434  1.00  0.00     0.105 C 
ATOM     23  N   UNL     1     115.538 156.941 116.430  1.00  0.00    -0.192 NA
ENDBRANCH  11  13
ENDBRANCH   1   7
TORSDOF 4
ENDMDL
MODEL 2
REMARK VINA RESULT:    -8.731      1.632      3.013
REMARK INTER + INTRA:         -11.406
REMARK INTER:                 -10.915
REMARK INTRA:                  -0.491
REMARK UNBOUND:                -0.633
REMARK SMILES CCN(C(C)=O)c1cccc(-c2ccnc3c(C#N)cnn23)c1
REMARK SMILES IDX 3 1 2 2 1 3 4 4 6 5 5 6 7 7 8 8 23 9 9 10 11 11 10 12 12 13
REMARK SMILES IDX 13 14 22 15 14 16 21 17 16 18 15 19 20 20 17 21 18 22 19 23
REMARK H PARENT
ROOT
ATOM      1  N   UNL     1     118.605 156.620 107.512  1.00  0.00    -0.313 N 
ENDROOT
BRANCH   1   2
ATOM      2  C   UNL     1     118.035 155.264 107.401  1.00  0.00     0.122 C 
ATOM      3  C   UNL     1     116.672 155.258 106.719  1.00  0.00     0.028 C 
ENDBRANCH   1   2
BRANCH   1   4
ATOM      4  C   UNL     1     119.083 157.290 106.367  1.00  0.00     0.223 C 
ATOM      5  O   UNL     1     118.446 158.108 105.698  1.00  0.00    -0.275 OA
ATOM      6  C   UNL     1     120.499 156.982 105.931  1.00  0.00     0.115 C 
ENDBRANCH   1   4
BRANCH   1   7
ATOM      7  C   UNL     1     118.727 157.201 108.839  1.00  0.00     0.044 A 
ATOM      8  C   UNL     1     119.459 158.375 109.069  1.00  0.00     0.026 A 
ATOM      9  C   UNL     1     118.086 156.630 109.957  1.00  0.00     0.036 A 
ATOM     10  C   UNL     1     119.580 158.932 110.347  1.00  0.00     0.003 A 
ATOM     11  C   UNL     1     118.190 157.179 111.251  1.00  0.00     0.002 A 
ATOM     12  C   UNL     1     118.954 158.335 111.435  1.00  0.00     0.010 A 
BRANCH  11  13
ATOM     13  C   UNL     1     117.502 156.542 112.396  1.00  0.00     0.076 C 
ATOM     14  C   UNL     1     117.716 155.233 112.638  1.00  0.00     0.049 C 
ATOM     15  N   UNL     1     116.648 157.263 113.255  1.00  0.00    -0.213 N 
ATOM     16  C   UNL     1     117.005 154.658 113.808  1.00  0.00     0.116 C 
ATOM     17  N   UNL     1     116.311 158.585 113.206  1.00  0.00    -0.173 NA
ATOM     18  C   UNL     1     116.018 156.623 114.339  1.00  0.00     0.173 A 
ATOM     19  N   UNL     1     116.209 155.295 114.610  1.00  0.00    -0.236 NA
ATOM     20  C   UNL     1     115.470 158.761 114.226  1.00  0.00     0.157 A 
ATOM     21  C   UNL     1     115.256 157.588 114.957  1.00  0.00     0.117 A 
ATOM     22  C   UNL     1     114.432 157.421 116.103  1.00  0.00     0.105 C 
ATOM     23  N   UNL     1     113.749 157.329 117.037  1.00  0.00    -0.192 NA
ENDBRANCH  11  13
ENDBRANCH   1   7
TORSDOF 4
ENDMDL
MODEL 3
REMARK VINA RESULT:    -8.711      2.223      6.935
REMARK INTER + INTRA:         -11.381
REMARK INTER:                 -10.769
REMARK INTRA:                  -0.612
REMARK UNBOUND:                -0.633
REMARK SMILES CCN(C(C)=O)c1cccc(-c2ccnc3c(C#N)cnn23)c1
REMARK SMILES IDX 3 1 2 2 1 3 4 4 6 5 5 6 7 7 8 8 23 9 9 10 11 11 10 12 12 13
REMARK SMILES IDX 13 14 22 15 14 16 21 17 16 18 15 19 20 20 17 21 18 22 19 23
REMARK H PARENT
ROOT
ATOM      1  N   UNL     1     116.984 156.527 113.441  1.00  0.00    -0.313 N 
ENDROOT
BRANCH   1   2
ATOM      2  C   UNL     1     117.270 155.238 112.784  1.00  0.00     0.122 C 
ATOM      3  C   UNL     1     117.822 154.198 113.753  1.00  0.00     0.028 C 
ENDBRANCH   1   2
BRANCH   1   4
ATOM      4  C   UNL     1     116.440 156.561 114.741  1.00  0.00     0.223 C 
ATOM      5  O   UNL     1     117.053 156.869 115.766  1.00  0.00    -0.275 OA
ATOM      6  C   UNL     1     114.978 156.194 114.885  1.00  0.00     0.115 C 
ENDBRANCH   1   4
BRANCH   1   7
ATOM      7  C   UNL     1     117.207 157.744 112.678  1.00  0.00     0.044 A 
ATOM      8  C   UNL     1     116.601 158.959 113.029  1.00  0.00     0.026 A 
ATOM      9  C   UNL     1     118.072 157.771 111.566  1.00  0.00     0.036 A 
ATOM     10  C   UNL     1     116.812 160.130 112.293  1.00  0.00     0.003 A 
ATOM     11  C   UNL     1     118.303 158.941 110.815  1.00  0.00     0.002 A 
ATOM     12  C   UNL     1     117.654 160.121 111.187  1.00  0.00     0.010 A 
BRANCH  11  13
ATOM     13  C   UNL     1     119.218 158.919 109.651  1.00  0.00     0.076 C 
ATOM     14  C   UNL     1     120.356 159.640 109.704  1.00  0.00     0.049 C 
ATOM     15  N   UNL     1     118.951 158.152 108.499  1.00  0.00    -0.213 N 
ATOM     16  C   UNL     1     121.235 159.566 108.510  1.00  0.00     0.116 C 
ATOM     17  N   UNL     1     117.881 157.342 108.246  1.00  0.00    -0.173 NA
ATOM     18  C   UNL     1     119.850 158.151 107.417  1.00  0.00     0.173 A 
ATOM     19  N   UNL     1     121.012 158.875 107.435  1.00  0.00    -0.236 NA
ATOM     20  C   UNL     1     118.098 156.863 107.021  1.00  0.00     0.157 A 
ATOM     21  C   UNL     1     119.295 157.325 106.465  1.00  0.00     0.117 A 
ATOM     22  C   UNL     1     119.835 157.010 105.189  1.00  0.00     0.105 C 
ATOM     23  N   UNL     1     120.241 156.724 104.139  1.00  0.00    -0.192 NA
ENDBRANCH  11  13
ENDBRANCH   1   7
TORSDOF 4
ENDMDL
MODEL 4
REMARK VINA RESULT:    -8.698      2.317      7.321
REMARK INTER + INTRA:         -11.365
REMARK INTER:                 -11.046
REMARK INTRA:                  -0.319
REMARK UNBOUND:                -0.633
REMARK SMILES CCN(C(C)=O)c1cccc(-c2ccnc3c(C#N)cnn23)c1
REMARK SMILES IDX 3 1 2 2 1 3 4 4 6 5 5 6 7 7 8 8 23 9 9 10 11 11 10 12 12 13
REMARK SMILES IDX 13 14 22 15 14 16 21 17 16 18 15 19 20 20 17 21 18 22 19 23
REMARK H PARENT
ROOT
ATOM      1  N   UNL     1     116.183 155.532 113.925  1.00  0.00    -0.313 N 
ENDROOT
BRANCH   1   2
ATOM      2  C   UNL     1     114.814 155.615 114.466  1.00  0.00     0.122 C 
ATOM      3  C   UNL     1     113.860 154.633 113.794  1.00  0.00     0.028 C 
ENDBRANCH   1   2
BRANCH   1   4
ATOM      4  C   UNL     1     117.098 154.589 114.438  1.00  0.00     0.223 C 
ATOM      5  O   UNL     1     118.104 154.177 113.856  1.00  0.00    -0.275 OA
ATOM      6  C   UNL     1     116.822 154.048 115.825  1.00  0.00     0.115 C 
ENDBRANCH   1   4
BRANCH   1   7
ATOM      7  C   UNL     1     116.575 156.497 112.912  1.00  0.00     0.044 A 
ATOM      8  C   UNL     1     116.869 157.830 113.233  1.00  0.00     0.026 A 
ATOM      9  C   UNL     1     116.712 156.132 111.557  1.00  0.00     0.036 A 
ATOM     10  C   UNL     1     117.244 158.760 112.257  1.00  0.00     0.003 A 
ATOM     11  C   UNL     1     117.093 157.052 110.560  1.00  0.00     0.002 A 
ATOM     12  C   UNL     1     117.349 158.376 110.925  1.00  0.00     0.010 A 
BRANCH  11  13
ATOM     13  C   UNL     1     117.220 156.623 109.149  1.00  0.00     0.076 C 
ATOM     14  C   UNL     1     116.252 155.853 108.613  1.00  0.00     0.049 C 
ATOM     15  N   UNL     1     118.308 157.011 108.340  1.00  0.00    -0.213 N 
ATOM     16  C   UNL     1     116.434 155.467 107.191  1.00  0.00     0.116 C 
ATOM     17  N   UNL     1     119.375 157.796 108.670  1.00  0.00    -0.173 NA
ATOM     18  C   UNL     1     118.389 156.589 107.000  1.00  0.00     0.173 A 
ATOM     19  N   UNL     1     117.426 155.803 106.426  1.00  0.00    -0.236 NA
ATOM     20  C   UNL     1     120.118 157.843 107.564  1.00  0.00     0.157 A 
ATOM     21  C   UNL     1     119.558 157.121 106.506  1.00  0.00     0.117 A 
ATOM     22  C   UNL     1     120.077 156.969 105.192  1.00  0.00     0.105 C 
ATOM     23  N   UNL     1     120.535 156.871 104.129  1.00  0.00    -0.192 NA
ENDBRANCH  11  13
ENDBRANCH   1   7
TORSDOF 4
ENDMDL
MODEL 5
REMARK VINA RESULT:    -8.556      2.783      4.521
REMARK INTER + INTRA:         -11.190
REMARK INTER:                 -11.079
REMARK INTRA:                  -0.110
REMARK UNBOUND:                -0.633
REMARK SMILES CCN(C(C)=O)c1cccc(-c2ccnc3c(C#N)cnn23)c1
REMARK SMILES IDX 3 1 2 2 1 3 4 4 6 5 5 6 7 7 8 8 23 9 9 10 11 11 10 12 12 13
REMARK SMILES IDX 13 14 22 15 14 16 21 17 16 18 15 19 20 20 17 21 18 22 19 23
REMARK H PARENT
ROOT
ATOM      1  N   UNL     1     121.715 161.060 108.163  1.00  0.00    -0.313 N 
ENDROOT
BRANCH   1   2
ATOM      2  C   UNL     1     122.982 160.976 107.413  1.00  0.00     0.122 C 
ATOM      3  C   UNL     1     122.949 161.780 106.118  1.00  0.00     0.028 C 
ENDBRANCH   1   2
BRANCH   1   4
ATOM      4  C   UNL     1     121.326 162.269 108.775  1.00  0.00     0.223 C 
ATOM      5  O   UNL     1     120.165 162.666 108.902  1.00  0.00    -0.275 OA
ATOM      6  C   UNL     1     122.429 163.146 109.328  1.00  0.00     0.115 C 
ENDBRANCH   1   4
BRANCH   1   7
ATOM      7  C   UNL     1     120.931 159.845 108.314  1.00  0.00     0.044 A 
ATOM      8  C   UNL     1     120.990 158.804 107.376  1.00  0.00     0.026 A 
ATOM      9  C   UNL     1     120.096 159.639 109.430  1.00  0.00     0.036 A 
ATOM     10  C   UNL     1     120.233 157.636 107.519  1.00  0.00     0.003 A 
ATOM     11  C   UNL     1     119.330 158.468 109.596  1.00  0.00     0.002 A 
ATOM     12  C   UNL     1     119.401 157.471 108.621  1.00  0.00     0.010 A 
BRANCH  11  13
ATOM     13  C   UNL     1     118.464 158.298 110.785  1.00  0.00     0.076 C 
ATOM     14  C   UNL     1     118.385 157.085 111.365  1.00  0.00     0.049 C 
ATOM     15  N   UNL     1     117.736 159.369 111.344  1.00  0.00    -0.213 N 
ATOM     16  C   UNL     1     117.509 156.984 112.560  1.00  0.00     0.116 C 
ATOM     17  N   UNL     1     117.687 160.670 110.933  1.00  0.00    -0.173 NA
ATOM     18  C   UNL     1     116.930 159.169 112.480  1.00  0.00     0.173 A 
ATOM     19  N   UNL     1     116.824 157.949 113.091  1.00  0.00    -0.236 NA
ATOM     20  C   UNL     1     116.850 161.265 111.783  1.00  0.00     0.157 A 
ATOM     21  C   UNL     1     116.357 160.390 112.756  1.00  0.00     0.117 A 
ATOM     22  C   UNL     1     115.457 160.691 113.814  1.00  0.00     0.105 C 
ATOM     23  N   UNL     1     114.721 160.980 114.665  1.00  0.00    -0.192 NA
ENDBRANCH  11  13
ENDBRANCH   1   7
TORSDOF 4
ENDMDL
MODEL 6
REMARK VINA RESULT:    -8.501      2.699      7.361
REMARK INTER + INTRA:         -11.122
REMARK INTER:                 -10.707
REMARK INTRA:                  -0.415
REMARK UNBOUND:                -0.633
REMARK SMILES CCN(C(C)=O)c1cccc(-c2ccnc3c(C#N)cnn23)c1
REMARK SMILES IDX 3 1 2 2 1 3 4 4 6 5 5 6 7 7 8 8 23 9 9 10 11 11 10 12 12 13
REMARK SMILES IDX 13 14 22 15 14 16 21 17 16 18 15 19 20 20 17 21 18 22 19 23
REMARK H PARENT
ROOT
ATOM      1  N   UNL     1     116.077 160.594 113.088  1.00  0.00    -0.313 N 
ENDROOT
BRANCH   1   2
ATOM      2  C   UNL     1     116.306 161.920 112.485  1.00  0.00     0.122 C 
ATOM      3  C   UNL     1     116.289 163.042 113.517  1.00  0.00     0.028 C 
ENDBRANCH   1   2
BRANCH   1   4
ATOM      4  C   UNL     1     115.210 160.451 114.191  1.00  0.00     0.223 C 
ATOM      5  O   UNL     1     115.559 160.364 115.370  1.00  0.00    -0.275 OA
ATOM      6  C   UNL     1     113.725 160.411 113.897  1.00  0.00     0.115 C 
ENDBRANCH   1   4
BRANCH   1   7
ATOM      7  C   UNL     1     116.830 159.467 112.563  1.00  0.00     0.044 A 
ATOM      8  C   UNL     1     116.744 158.189 113.132  1.00  0.00     0.026 A 
ATOM      9  C   UNL     1     117.661 159.597 111.431  1.00  0.00     0.036 A 
ATOM     10  C   UNL     1     117.471 157.104 112.629  1.00  0.00     0.003 A 
ATOM     11  C   UNL     1     118.397 158.517 110.905  1.00  0.00     0.002 A 
ATOM     12  C   UNL     1     118.299 157.268 111.524  1.00  0.00     0.010 A 
BRANCH  11  13
ATOM     13  C   UNL     1     119.259 158.702 109.716  1.00  0.00     0.076 C 
ATOM     14  C   UNL     1     120.223 159.643 109.751  1.00  0.00     0.049 C 
ATOM     15  N   UNL     1     119.120 157.912 108.556  1.00  0.00    -0.213 N 
ATOM     16  C   UNL     1     121.059 159.770 108.531  1.00  0.00     0.116 C 
ATOM     17  N   UNL     1     118.235 156.900 108.318  1.00  0.00    -0.173 NA
ATOM     18  C   UNL     1     119.965 158.113 107.449  1.00  0.00     0.173 A 
ATOM     19  N   UNL     1     120.951 159.063 107.449  1.00  0.00    -0.236 NA
ATOM     20  C   UNL     1     118.507 156.494 107.077  1.00  0.00     0.157 A 
ATOM     21  C   UNL     1     119.563 157.203 106.497  1.00  0.00     0.117 A 
ATOM     22  C   UNL     1     120.116 157.025 105.200  1.00  0.00     0.105 C 
ATOM     23  N   UNL     1     120.539 156.845 104.134  1.00  0.00    -0.192 NA
ENDBRANCH  11  13
ENDBRANCH   1   7
TORSDOF 4
ENDMDL
MODEL 7
REMARK VINA RESULT:    -8.190      2.033      3.446
REMARK INTER + INTRA:         -10.739
REMARK INTER:                 -10.606
REMARK INTRA:                  -0.133
REMARK UNBOUND:                -0.633
REMARK SMILES CCN(C(C)=O)c1cccc(-c2ccnc3c(C#N)cnn23)c1
REMARK SMILES IDX 3 1 2 2 1 3 4 4 6 5 5 6 7 7 8 8 23 9 9 10 11 11 10 12 12 13
REMARK SMILES IDX 13 14 22 15 14 16 21 17 16 18 15 19 20 20 17 21 18 22 19 23
REMARK H PARENT
ROOT
ATOM      1  N   UNL     1     117.513 155.990 108.338  1.00  0.00    -0.313 N 
ENDROOT
BRANCH   1   2
ATOM      2  C   UNL     1     118.610 155.800 107.372  1.00  0.00     0.122 C 
ATOM      3  C   UNL     1     118.459 156.682 106.137  1.00  0.00     0.028 C 
ENDBRANCH   1   2
BRANCH   1   4
ATOM      4  C   UNL     1     116.195 155.615 108.005  1.00  0.00     0.223 C 
ATOM      5  O   UNL     1     115.883 154.721 107.216  1.00  0.00    -0.275 OA
ATOM      6  C   UNL     1     115.072 156.372 108.682  1.00  0.00     0.115 C 
ENDBRANCH   1   4
BRANCH   1   7
ATOM      7  C   UNL     1     117.821 156.643 109.600  1.00  0.00     0.044 A 
ATOM      8  C   UNL     1     118.363 157.935 109.652  1.00  0.00     0.026 A 
ATOM      9  C   UNL     1     117.558 156.021 110.837  1.00  0.00     0.036 A 
ATOM     10  C   UNL     1     118.663 158.562 110.867  1.00  0.00     0.003 A 
ATOM     11  C   UNL     1     117.847 156.637 112.071  1.00  0.00     0.002 A 
ATOM     12  C   UNL     1     118.413 157.915 112.071  1.00  0.00     0.010 A 
BRANCH  11  13
ATOM     13  C   UNL     1     117.556 155.943 113.345  1.00  0.00     0.076 C 
ATOM     14  C   UNL     1     117.669 154.601 113.396  1.00  0.00     0.049 C 
ATOM     15  N   UNL     1     117.187 156.640 114.514  1.00  0.00    -0.213 N 
ATOM     16  C   UNL     1     117.374 153.967 114.706  1.00  0.00     0.116 C 
ATOM     17  N   UNL     1     117.036 157.986 114.690  1.00  0.00    -0.173 NA
ATOM     18  C   UNL     1     116.927 155.944 115.709  1.00  0.00     0.173 A 
ATOM     19  N   UNL     1     117.027 154.581 115.794  1.00  0.00    -0.236 NA
ATOM     20  C   UNL     1     116.667 158.124 115.963  1.00  0.00     0.157 A 
ATOM     21  C   UNL     1     116.587 156.902 116.638  1.00  0.00     0.117 A 
ATOM     22  C   UNL     1     116.234 156.685 117.997  1.00  0.00     0.105 C 
ATOM     23  N   UNL     1     115.942 156.554 119.113  1.00  0.00    -0.192 NA
ENDBRANCH  11  13
ENDBRANCH   1   7
TORSDOF 4
ENDMDL
MODEL 8
REMARK VINA RESULT:    -8.104      2.635      7.503
REMARK INTER + INTRA:         -10.633
REMARK INTER:                 -10.318
REMARK INTRA:                  -0.314
REMARK UNBOUND:                -0.633
REMARK SMILES CCN(C(C)=O)c1cccc(-c2ccnc3c(C#N)cnn23)c1
REMARK SMILES IDX 3 1 2 2 1 3 4 4 6 5 5 6 7 7 8 8 23 9 9 10 11 11 10 12 12 13
REMARK SMILES IDX 13 14 22 15 14 16 21 17 16 18 15 19 20 20 17 21 18 22 19 23
REMARK H PARENT
ROOT
ATOM      1  N   UNL     1     116.248 158.202 115.113  1.00  0.00    -0.313 N 
ENDROOT
BRANCH   1   2
ATOM      2  C   UNL     1     115.332 159.294 114.732  1.00  0.00     0.122 C 
ATOM      3  C   UNL     1     113.866 158.916 114.913  1.00  0.00     0.028 C 
ENDBRANCH   1   2
BRANCH   1   4
ATOM      4  C   UNL     1     116.686 158.069 116.446  1.00  0.00     0.223 C 
ATOM      5  O   UNL     1     117.724 158.546 116.909  1.00  0.00    -0.275 OA
ATOM      6  C   UNL     1     115.799 157.280 117.386  1.00  0.00     0.115 C 
ENDBRANCH   1   4
BRANCH   1   7
ATOM      7  C   UNL     1     116.739 157.327 114.061  1.00  0.00     0.044 A 
ATOM      8  C   UNL     1     116.593 155.934 114.127  1.00  0.00     0.026 A 
ATOM      9  C   UNL     1     117.358 157.839 112.903  1.00  0.00     0.036 A 
ATOM     10  C   UNL     1     117.068 155.091 113.116  1.00  0.00     0.003 A 
ATOM     11  C   UNL     1     117.839 157.009 111.871  1.00  0.00     0.002 A 
ATOM     12  C   UNL     1     117.694 155.625 111.996  1.00  0.00     0.010 A 
BRANCH  11  13
ATOM     13  C   UNL     1     118.485 157.594 110.675  1.00  0.00     0.076 C 
ATOM     14  C   UNL     1     119.367 158.600 110.837  1.00  0.00     0.049 C 
ATOM     15  N   UNL     1     118.228 157.117 109.372  1.00  0.00    -0.213 N 
ATOM     16  C   UNL     1     119.988 159.133 109.599  1.00  0.00     0.116 C 
ATOM     17  N   UNL     1     117.397 156.105 108.986  1.00  0.00    -0.173 NA
ATOM     18  C   UNL     1     118.869 157.694 108.261  1.00  0.00     0.173 A 
ATOM     19  N   UNL     1     119.766 158.720 108.390  1.00  0.00    -0.236 NA
ATOM     20  C   UNL     1     117.501 156.066 107.658  1.00  0.00     0.157 A 
ATOM     21  C   UNL     1     118.395 157.019 107.158  1.00  0.00     0.117 A 
ATOM     22  C   UNL     1     118.748 157.246 105.801  1.00  0.00     0.105 C 
ATOM     23  N   UNL     1     119.011 157.397 104.680  1.00  0.00    -0.192 NA
ENDBRANCH  11  13
ENDBRANCH   1   7
TORSDOF 4
ENDMDL
MODEL 9
REMARK VINA RESULT:    -7.922      1.789      2.816
REMARK INTER + INTRA:         -10.408
REMARK INTER:                 -10.689
REMARK INTRA:                   0.281
REMARK UNBOUND:                -0.633
REMARK SMILES CCN(C(C)=O)c1cccc(-c2ccnc3c(C#N)cnn23)c1
REMARK SMILES IDX 3 1 2 2 1 3 4 4 6 5 5 6 7 7 8 8 23 9 9 10 11 11 10 12 12 13
REMARK SMILES IDX 13 14 22 15 14 16 21 17 16 18 15 19 20 20 17 21 18 22 19 23
REMARK H PARENT
ROOT
ATOM      1  N   UNL     1     120.309 158.137 107.799  1.00  0.00    -0.313 N 
ENDROOT
BRANCH   1   2
ATOM      2  C   UNL     1     120.856 157.425 106.629  1.00  0.00     0.122 C 
ATOM      3  C   UNL     1     120.046 157.675 105.362  1.00  0.00     0.028 C 
ENDBRANCH   1   2
BRANCH   1   4
ATOM      4  C   UNL     1     120.822 159.396 108.173  1.00  0.00     0.223 C 
ATOM      5  O   UNL     1     120.342 160.139 109.033  1.00  0.00    -0.275 OA
ATOM      6  C   UNL     1     122.073 159.868 107.462  1.00  0.00     0.115 C 
ENDBRANCH   1   4
BRANCH   1   7
ATOM      7  C   UNL     1     119.289 157.468 108.589  1.00  0.00     0.044 A 
ATOM      8  C   UNL     1     118.787 156.207 108.235  1.00  0.00     0.026 A 
ATOM      9  C   UNL     1     118.778 158.038 109.772  1.00  0.00     0.036 A 
ATOM     10  C   UNL     1     117.803 155.563 108.994  1.00  0.00     0.003 A 
ATOM     11  C   UNL     1     117.791 157.405 110.553  1.00  0.00     0.002 A 
ATOM     12  C   UNL     1     117.302 156.161 110.144  1.00  0.00     0.010 A 
BRANCH  11  13
ATOM     13  C   UNL     1     117.282 158.045 111.787  1.00  0.00     0.076 C 
ATOM     14  C   UNL     1     116.805 159.304 111.718  1.00  0.00     0.049 C 
ATOM     15  N   UNL     1     117.257 157.375 113.027  1.00  0.00    -0.213 N 
ATOM     16  C   UNL     1     116.299 159.884 112.987  1.00  0.00     0.116 C 
ATOM     17  N   UNL     1     117.666 156.104 113.315  1.00  0.00    -0.173 NA
ATOM     18  C   UNL     1     116.757 158.015 114.176  1.00  0.00     0.173 A 
ATOM     19  N   UNL     1     116.270 159.294 114.142  1.00  0.00    -0.236 NA
ATOM     20  C   UNL     1     117.447 155.964 114.623  1.00  0.00     0.157 A 
ATOM     21  C   UNL     1     116.886 157.106 115.202  1.00  0.00     0.117 A 
ATOM     22  C   UNL     1     116.519 157.296 116.562  1.00  0.00     0.105 C 
ATOM     23  N   UNL     1     116.232 157.408 117.681  1.00  0.00    -0.192 NA
ENDBRANCH  11  13
ENDBRANCH   1   7
TORSDOF 4
ENDMDL
