MODEL 1
REMARK VINA RESULT:    -6.882      0.000      0.000
REMARK INTER + INTRA:          -8.080
REMARK INTER:                  -7.485
REMARK INTRA:                  -0.594
REMARK UNBOUND:                -0.594
REMARK SMILES O=C1Nc2ccc(Cl)cc2C(c2ccccc2Cl)=NC1O
REMARK SMILES IDX 1 1 2 2 3 3 4 4 5 5 6 6 7 7 8 8 9 9 10 10 11 11 19 12 20 13
REMARK SMILES IDX 21 15 12 17 13 18 17 19 14 20 16 21 15 22 18 23
REMARK H PARENT 3 14 21 16
ROOT
ATOM      1  O   UNL     1     145.867  96.658 133.666  1.00  0.00    -0.269 OA
ATOM      2  C   UNL     1     144.825  97.163 134.092  1.00  0.00     0.276 C 
ATOM      3  N   UNL     1     144.231  96.618 135.203  1.00  0.00    -0.321 N 
ATOM      4  C   UNL     1     143.051  97.038 135.833  1.00  0.00     0.050 A 
ATOM      5  C   UNL     1     142.934  96.707 137.193  1.00  0.00     0.028 A 
ATOM      6  C   UNL     1     141.830  97.123 137.938  1.00  0.00     0.023 A 
ATOM      7  C   UNL     1     140.826  97.862 137.325  1.00  0.00     0.041 A 
ATOM      8  Cl  UNL     1     139.467  98.383 138.241  1.00  0.00    -0.084 Cl
ATOM      9  C   UNL     1     140.901  98.162 135.967  1.00  0.00     0.033 A 
ATOM     10  C   UNL     1     142.003  97.733 135.206  1.00  0.00     0.026 A 
ATOM     11  C   UNL     1     141.938  97.896 133.722  1.00  0.00     0.079 C 
ATOM     12  N   UNL     1     142.918  98.175 132.936  1.00  0.00    -0.243 NA
ATOM     13  C   UNL     1     144.229  98.461 133.501  1.00  0.00     0.323 C 
ATOM     14  H   UNL     1     144.796  95.901 135.639  1.00  0.00     0.170 HD
ENDROOT
BRANCH  13  15
ATOM     15  O   UNL     1     144.281  99.542 134.422  1.00  0.00    -0.364 OA
ATOM     16  H   UNL     1     144.710  99.189 135.217  1.00  0.00     0.213 HD
ENDBRANCH  13  15
BRANCH  11  17
ATOM     17  C   UNL     1     140.627  97.645 133.066  1.00  0.00     0.019 A 
ATOM     18  C   UNL     1     140.208  96.314 132.931  1.00  0.00     0.012 A 
ATOM     19  C   UNL     1     139.837  98.689 132.573  1.00  0.00     0.050 A 
ATOM     20  C   UNL     1     138.993  96.031 132.309  1.00  0.00     0.001 A 
ATOM     21  C   UNL     1     138.620  98.395 131.952  1.00  0.00     0.021 A 
ATOM     22  C   UNL     1     138.200  97.069 131.820  1.00  0.00     0.002 A 
ATOM     23  Cl  UNL     1     140.275 100.349 132.750  1.00  0.00    -0.084 Cl
ENDBRANCH  11  17
TORSDOF 2
ENDMDL
MODEL 2
REMARK VINA RESULT:    -6.807      2.978      4.434
REMARK INTER + INTRA:          -7.998
REMARK INTER:                  -7.464
REMARK INTRA:                  -0.534
REMARK UNBOUND:                -0.594
REMARK SMILES O=C1Nc2ccc(Cl)cc2C(c2ccccc2Cl)=NC1O
REMARK SMILES IDX 1 1 2 2 3 3 4 4 5 5 6 6 7 7 8 8 9 9 10 10 11 11 19 12 20 13
REMARK SMILES IDX 21 15 12 17 13 18 17 19 14 20 16 21 15 22 18 23
REMARK H PARENT 3 14 21 16
ROOT
ATOM      1  O   UNL     1     138.451 100.408 133.586  1.00  0.00    -0.269 OA
ATOM      2  C   UNL     1     139.033  99.376 133.929  1.00  0.00     0.276 C 
ATOM      3  N   UNL     1     139.712  99.363 135.121  1.00  0.00    -0.321 N 
ATOM      4  C   UNL     1     140.436  98.301 135.682  1.00  0.00     0.050 A 
ATOM      5  C   UNL     1     140.575  98.326 137.079  1.00  0.00     0.028 A 
ATOM      6  C   UNL     1     141.224  97.290 137.751  1.00  0.00     0.023 A 
ATOM      7  C   UNL     1     141.754  96.227 137.030  1.00  0.00     0.041 A 
ATOM      8  Cl  UNL     1     142.549  94.945 137.856  1.00  0.00    -0.084 Cl
ATOM      9  C   UNL     1     141.667  96.206 135.640  1.00  0.00     0.033 A 
ATOM     10  C   UNL     1     141.027  97.253 134.954  1.00  0.00     0.026 A 
ATOM     11  C   UNL     1     141.142  97.292 133.465  1.00  0.00     0.079 C 
ATOM     12  N   UNL     1     140.242  97.685 132.634  1.00  0.00    -0.243 NA
ATOM     13  C   UNL     1     138.925  98.057 133.131  1.00  0.00     0.323 C 
ATOM     14  H   UNL     1     139.562 100.201 135.669  1.00  0.00     0.170 HD
ENDROOT
BRANCH  13  15
ATOM     15  O   UNL     1     138.231  97.048 133.852  1.00  0.00    -0.364 OA
ATOM     16  H   UNL     1     137.722  97.517 134.534  1.00  0.00     0.213 HD
ENDBRANCH  13  15
BRANCH  11  17
ATOM     17  C   UNL     1     142.450  96.902 132.873  1.00  0.00     0.019 A 
ATOM     18  C   UNL     1     142.488  95.754 132.069  1.00  0.00     0.012 A 
ATOM     19  C   UNL     1     143.618  97.632 133.117  1.00  0.00     0.050 A 
ATOM     20  C   UNL     1     143.694  95.343 131.505  1.00  0.00     0.001 A 
ATOM     21  C   UNL     1     144.823  97.213 132.547  1.00  0.00     0.021 A 
ATOM     22  C   UNL     1     144.860  96.071 131.743  1.00  0.00     0.002 A 
ATOM     23  Cl  UNL     1     143.628  99.080 134.058  1.00  0.00    -0.084 Cl
ENDBRANCH  11  17
TORSDOF 2
ENDMDL
MODEL 3
REMARK VINA RESULT:    -6.679      2.483      4.426
REMARK INTER + INTRA:          -7.859
REMARK INTER:                  -7.260
REMARK INTRA:                  -0.600
REMARK UNBOUND:                -0.594
REMARK SMILES O=C1Nc2ccc(Cl)cc2C(c2ccccc2Cl)=NC1O
REMARK SMILES IDX 1 1 2 2 3 3 4 4 5 5 6 6 7 7 8 8 9 9 10 10 11 11 19 12 20 13
REMARK SMILES IDX 21 15 12 17 13 18 17 19 14 20 16 21 15 22 18 23
REMARK H PARENT 3 14 21 16
ROOT
ATOM      1  O   UNL     1     140.788  97.823 137.775  1.00  0.00    -0.269 OA
ATOM      2  C   UNL     1     140.975  98.034 136.573  1.00  0.00     0.276 C 
ATOM      3  N   UNL     1     140.078  98.815 135.890  1.00  0.00    -0.321 N 
ATOM      4  C   UNL     1     140.109  99.164 134.532  1.00  0.00     0.050 A 
ATOM      5  C   UNL     1     139.442 100.352 134.191  1.00  0.00     0.028 A 
ATOM      6  C   UNL     1     139.456 100.829 132.880  1.00  0.00     0.023 A 
ATOM      7  C   UNL     1     140.126 100.113 131.895  1.00  0.00     0.041 A 
ATOM      8  Cl  UNL     1     140.152 100.702 130.279  1.00  0.00    -0.084 Cl
ATOM      9  C   UNL     1     140.755  98.910 132.203  1.00  0.00     0.033 A 
ATOM     10  C   UNL     1     140.732  98.415 133.519  1.00  0.00     0.026 A 
ATOM     11  C   UNL     1     141.236  97.028 133.757  1.00  0.00     0.079 C 
ATOM     12  N   UNL     1     141.871  96.609 134.794  1.00  0.00    -0.243 NA
ATOM     13  C   UNL     1     142.246  97.555 135.835  1.00  0.00     0.323 C 
ATOM     14  H   UNL     1     139.392  99.247 136.495  1.00  0.00     0.170 HD
ENDROOT
BRANCH  13  15
ATOM     15  O   UNL     1     143.063  98.641 135.415  1.00  0.00    -0.364 OA
ATOM     16  H   UNL     1     143.390  98.396 134.534  1.00  0.00     0.213 HD
ENDBRANCH  13  15
BRANCH  11  17
ATOM     17  C   UNL     1     140.917  96.002 132.729  1.00  0.00     0.019 A 
ATOM     18  C   UNL     1     141.959  95.557 131.904  1.00  0.00     0.012 A 
ATOM     19  C   UNL     1     139.620  95.503 132.561  1.00  0.00     0.050 A 
ATOM     20  C   UNL     1     141.704  94.607 130.916  1.00  0.00     0.001 A 
ATOM     21  C   UNL     1     139.375  94.550 131.569  1.00  0.00     0.021 A 
ATOM     22  C   UNL     1     140.414  94.104 130.749  1.00  0.00     0.002 A 
ATOM     23  Cl  UNL     1     138.305  95.975 133.574  1.00  0.00    -0.084 Cl
ENDBRANCH  11  17
TORSDOF 2
ENDMDL
MODEL 4
REMARK VINA RESULT:    -6.583      3.359      4.468
REMARK INTER + INTRA:          -7.755
REMARK INTER:                  -7.152
REMARK INTRA:                  -0.603
REMARK UNBOUND:                -0.594
REMARK SMILES O=C1Nc2ccc(Cl)cc2C(c2ccccc2Cl)=NC1O
REMARK SMILES IDX 1 1 2 2 3 3 4 4 5 5 6 6 7 7 8 8 9 9 10 10 11 11 19 12 20 13
REMARK SMILES IDX 21 15 12 17 13 18 17 19 14 20 16 21 15 22 18 23
REMARK H PARENT 3 14 21 16
ROOT
ATOM      1  O   UNL     1     144.564  97.020 139.622  1.00  0.00    -0.269 OA
ATOM      2  C   UNL     1     144.001  96.484 138.665  1.00  0.00     0.276 C 
ATOM      3  N   UNL     1     144.765  95.993 137.636  1.00  0.00    -0.321 N 
ATOM      4  C   UNL     1     144.320  95.360 136.467  1.00  0.00     0.050 A 
ATOM      5  C   UNL     1     145.239  94.494 135.853  1.00  0.00     0.028 A 
ATOM      6  C   UNL     1     144.885  93.765 134.717  1.00  0.00     0.023 A 
ATOM      7  C   UNL     1     143.613  93.907 134.177  1.00  0.00     0.041 A 
ATOM      8  Cl  UNL     1     143.172  93.004 132.781  1.00  0.00    -0.084 Cl
ATOM      9  C   UNL     1     142.702  94.794 134.744  1.00  0.00     0.033 A 
ATOM     10  C   UNL     1     143.056  95.543 135.880  1.00  0.00     0.026 A 
ATOM     11  C   UNL     1     142.128  96.628 136.324  1.00  0.00     0.079 C 
ATOM     12  N   UNL     1     141.886  96.983 137.536  1.00  0.00    -0.243 NA
ATOM     13  C   UNL     1     142.476  96.231 138.634  1.00  0.00     0.323 C 
ATOM     14  H   UNL     1     145.757  96.022 137.835  1.00  0.00     0.170 HD
ENDROOT
BRANCH  13  15
ATOM     15  O   UNL     1     142.162  94.846 138.671  1.00  0.00    -0.364 OA
ATOM     16  H   UNL     1     141.690  94.707 139.509  1.00  0.00     0.213 HD
ENDBRANCH  13  15
BRANCH  11  17
ATOM     17  C   UNL     1     141.462  97.430 135.263  1.00  0.00     0.019 A 
ATOM     18  C   UNL     1     140.100  97.200 135.027  1.00  0.00     0.012 A 
ATOM     19  C   UNL     1     142.162  98.372 134.501  1.00  0.00     0.050 A 
ATOM     20  C   UNL     1     139.438  97.918 134.033  1.00  0.00     0.001 A 
ATOM     21  C   UNL     1     141.489  99.088 133.508  1.00  0.00     0.021 A 
ATOM     22  C   UNL     1     140.131  98.861 133.274  1.00  0.00     0.002 A 
ATOM     23  Cl  UNL     1     143.827  98.736 134.775  1.00  0.00    -0.084 Cl
ENDBRANCH  11  17
TORSDOF 2
ENDMDL
MODEL 5
REMARK VINA RESULT:    -6.505      2.952      5.603
REMARK INTER + INTRA:          -7.670
REMARK INTER:                  -7.096
REMARK INTRA:                  -0.574
REMARK UNBOUND:                -0.594
REMARK SMILES O=C1Nc2ccc(Cl)cc2C(c2ccccc2Cl)=NC1O
REMARK SMILES IDX 1 1 2 2 3 3 4 4 5 5 6 6 7 7 8 8 9 9 10 10 11 11 19 12 20 13
REMARK SMILES IDX 21 15 12 17 13 18 17 19 14 20 16 21 15 22 18 23
REMARK H PARENT 3 14 21 16
ROOT
ATOM      1  O   UNL     1     137.810 100.686 133.607  1.00  0.00    -0.269 OA
ATOM      2  C   UNL     1     138.673  99.805 133.579  1.00  0.00     0.276 C 
ATOM      3  N   UNL     1     138.286  98.505 133.372  1.00  0.00    -0.321 N 
ATOM      4  C   UNL     1     139.105  97.368 133.313  1.00  0.00     0.050 A 
ATOM      5  C   UNL     1     138.593  96.284 132.583  1.00  0.00     0.028 A 
ATOM      6  C   UNL     1     139.345  95.121 132.407  1.00  0.00     0.023 A 
ATOM      7  C   UNL     1     140.610  95.029 132.973  1.00  0.00     0.041 A 
ATOM      8  Cl  UNL     1     141.543  93.601 132.752  1.00  0.00    -0.084 Cl
ATOM      9  C   UNL     1     141.117  96.075 133.739  1.00  0.00     0.033 A 
ATOM     10  C   UNL     1     140.360  97.243 133.934  1.00  0.00     0.026 A 
ATOM     11  C   UNL     1     140.854  98.244 134.928  1.00  0.00     0.079 C 
ATOM     12  N   UNL     1     140.750  99.524 134.846  1.00  0.00    -0.243 NA
ATOM     13  C   UNL     1     140.185 100.120 133.645  1.00  0.00     0.323 C 
ATOM     14  H   UNL     1     137.305  98.419 133.141  1.00  0.00     0.170 HD
ENDROOT
BRANCH  13  15
ATOM     15  O   UNL     1     140.851  99.807 132.429  1.00  0.00    -0.364 OA
ATOM     16  H   UNL     1     140.399 100.324 131.742  1.00  0.00     0.213 HD
ENDBRANCH  13  15
BRANCH  11  17
ATOM     17  C   UNL     1     141.469  97.718 136.175  1.00  0.00     0.019 A 
ATOM     18  C   UNL     1     140.614  97.381 137.234  1.00  0.00     0.012 A 
ATOM     19  C   UNL     1     142.854  97.579 136.315  1.00  0.00     0.050 A 
ATOM     20  C   UNL     1     141.146  96.898 138.428  1.00  0.00     0.001 A 
ATOM     21  C   UNL     1     143.378  97.093 137.515  1.00  0.00     0.021 A 
ATOM     22  C   UNL     1     142.526  96.754 138.569  1.00  0.00     0.002 A 
ATOM     23  Cl  UNL     1     143.956  97.931 135.033  1.00  0.00    -0.084 Cl
ENDBRANCH  11  17
TORSDOF 2
ENDMDL
MODEL 6
REMARK VINA RESULT:    -6.436      2.840      5.342
REMARK INTER + INTRA:          -7.594
REMARK INTER:                  -7.010
REMARK INTRA:                  -0.584
REMARK UNBOUND:                -0.594
REMARK SMILES O=C1Nc2ccc(Cl)cc2C(c2ccccc2Cl)=NC1O
REMARK SMILES IDX 1 1 2 2 3 3 4 4 5 5 6 6 7 7 8 8 9 9 10 10 11 11 19 12 20 13
REMARK SMILES IDX 21 15 12 17 13 18 17 19 14 20 16 21 15 22 18 23
REMARK H PARENT 3 14 21 16
ROOT
ATOM      1  O   UNL     1     138.783  95.251 131.905  1.00  0.00    -0.269 OA
ATOM      2  C   UNL     1     139.478  96.033 132.559  1.00  0.00     0.276 C 
ATOM      3  N   UNL     1     140.796  96.195 132.215  1.00  0.00    -0.321 N 
ATOM      4  C   UNL     1     141.745  97.023 132.831  1.00  0.00     0.050 A 
ATOM      5  C   UNL     1     142.818  97.429 132.022  1.00  0.00     0.028 A 
ATOM      6  C   UNL     1     143.792  98.302 132.511  1.00  0.00     0.023 A 
ATOM      7  C   UNL     1     143.707  98.764 133.818  1.00  0.00     0.041 A 
ATOM      8  Cl  UNL     1     144.901  99.845 134.421  1.00  0.00    -0.084 Cl
ATOM      9  C   UNL     1     142.675  98.338 134.650  1.00  0.00     0.033 A 
ATOM     10  C   UNL     1     141.699  97.448 134.171  1.00  0.00     0.026 A 
ATOM     11  C   UNL     1     140.740  96.859 135.154  1.00  0.00     0.079 C 
ATOM     12  N   UNL     1     139.501  96.580 134.946  1.00  0.00    -0.243 NA
ATOM     13  C   UNL     1     138.893  96.932 133.672  1.00  0.00     0.323 C 
ATOM     14  H   UNL     1     141.039  95.721 131.355  1.00  0.00     0.170 HD
ENDROOT
BRANCH  13  15
ATOM     15  O   UNL     1     138.939  98.310 133.327  1.00  0.00    -0.364 OA
ATOM     16  H   UNL     1     139.684  98.402 132.712  1.00  0.00     0.213 HD
ENDBRANCH  13  15
BRANCH  11  17
ATOM     17  C   UNL     1     141.276  96.492 136.492  1.00  0.00     0.019 A 
ATOM     18  C   UNL     1     142.094  95.357 136.579  1.00  0.00     0.012 A 
ATOM     19  C   UNL     1     140.965  97.229 137.640  1.00  0.00     0.050 A 
ATOM     20  C   UNL     1     142.608  94.967 137.815  1.00  0.00     0.001 A 
ATOM     21  C   UNL     1     141.485  96.830 138.874  1.00  0.00     0.021 A 
ATOM     22  C   UNL     1     142.303  95.701 138.961  1.00  0.00     0.002 A 
ATOM     23  Cl  UNL     1     140.003  98.661 137.591  1.00  0.00    -0.084 Cl
ENDBRANCH  11  17
TORSDOF 2
ENDMDL
MODEL 7
REMARK VINA RESULT:    -6.418      2.655      4.077
REMARK INTER + INTRA:          -7.575
REMARK INTER:                  -6.976
REMARK INTRA:                  -0.599
REMARK UNBOUND:                -0.594
REMARK SMILES O=C1Nc2ccc(Cl)cc2C(c2ccccc2Cl)=NC1O
REMARK SMILES IDX 1 1 2 2 3 3 4 4 5 5 6 6 7 7 8 8 9 9 10 10 11 11 19 12 20 13
REMARK SMILES IDX 21 15 12 17 13 18 17 19 14 20 16 21 15 22 18 23
REMARK H PARENT 3 14 21 16
ROOT
ATOM      1  O   UNL     1     140.786  98.816 137.420  1.00  0.00    -0.269 OA
ATOM      2  C   UNL     1     141.013  98.068 136.465  1.00  0.00     0.276 C 
ATOM      3  N   UNL     1     142.072  98.350 135.640  1.00  0.00    -0.321 N 
ATOM      4  C   UNL     1     142.488  97.633 134.509  1.00  0.00     0.050 A 
ATOM      5  C   UNL     1     143.841  97.772 134.162  1.00  0.00     0.028 A 
ATOM      6  C   UNL     1     144.382  97.060 133.090  1.00  0.00     0.023 A 
ATOM      7  C   UNL     1     143.568  96.213 132.347  1.00  0.00     0.041 A 
ATOM      8  Cl  UNL     1     144.231  95.329 131.030  1.00  0.00    -0.084 Cl
ATOM      9  C   UNL     1     142.213  96.097 132.647  1.00  0.00     0.033 A 
ATOM     10  C   UNL     1     141.658  96.822 133.715  1.00  0.00     0.026 A 
ATOM     11  C   UNL     1     140.171  96.826 133.866  1.00  0.00     0.079 C 
ATOM     12  N   UNL     1     139.511  96.841 134.970  1.00  0.00    -0.243 NA
ATOM     13  C   UNL     1     140.228  96.757 136.234  1.00  0.00     0.323 C 
ATOM     14  H   UNL     1     142.647  99.108 135.983  1.00  0.00     0.170 HD
ENDROOT
BRANCH  13  15
ATOM     15  O   UNL     1     141.045  95.606 136.403  1.00  0.00    -0.364 OA
ATOM     16  H   UNL     1     140.661  95.120 137.151  1.00  0.00     0.213 HD
ENDBRANCH  13  15
BRANCH  11  17
ATOM     17  C   UNL     1     139.361  96.886 132.620  1.00  0.00     0.019 A 
ATOM     18  C   UNL     1     138.689  95.723 132.221  1.00  0.00     0.012 A 
ATOM     19  C   UNL     1     139.280  98.050 131.847  1.00  0.00     0.050 A 
ATOM     20  C   UNL     1     137.929  95.729 131.052  1.00  0.00     0.001 A 
ATOM     21  C   UNL     1     138.516  98.046 130.678  1.00  0.00     0.021 A 
ATOM     22  C   UNL     1     137.842  96.888 130.282  1.00  0.00     0.002 A 
ATOM     23  Cl  UNL     1     140.046  99.526 132.310  1.00  0.00    -0.084 Cl
ENDBRANCH  11  17
TORSDOF 2
ENDMDL
MODEL 8
REMARK VINA RESULT:    -6.210      2.990      5.687
REMARK INTER + INTRA:          -7.349
REMARK INTER:                  -6.749
REMARK INTRA:                  -0.600
REMARK UNBOUND:                -0.594
REMARK SMILES O=C1Nc2ccc(Cl)cc2C(c2ccccc2Cl)=NC1O
REMARK SMILES IDX 1 1 2 2 3 3 4 4 5 5 6 6 7 7 8 8 9 9 10 10 11 11 19 12 20 13
REMARK SMILES IDX 21 15 12 17 13 18 17 19 14 20 16 21 15 22 18 23
REMARK H PARENT 3 14 21 16
ROOT
ATOM      1  O   UNL     1     138.385  98.270 132.594  1.00  0.00    -0.269 OA
ATOM      2  C   UNL     1     139.583  98.129 132.856  1.00  0.00     0.276 C 
ATOM      3  N   UNL     1     140.289  97.142 132.215  1.00  0.00    -0.321 N 
ATOM      4  C   UNL     1     141.644  96.819 132.375  1.00  0.00     0.050 A 
ATOM      5  C   UNL     1     142.254  96.183 131.283  1.00  0.00     0.028 A 
ATOM      6  C   UNL     1     143.613  95.867 131.306  1.00  0.00     0.023 A 
ATOM      7  C   UNL     1     144.371  96.173 132.430  1.00  0.00     0.041 A 
ATOM      8  Cl  UNL     1     146.047  95.792 132.459  1.00  0.00    -0.084 Cl
ATOM      9  C   UNL     1     143.775  96.763 133.541  1.00  0.00     0.033 A 
ATOM     10  C   UNL     1     142.403  97.071 133.531  1.00  0.00     0.026 A 
ATOM     11  C   UNL     1     141.771  97.506 134.813  1.00  0.00     0.079 C 
ATOM     12  N   UNL     1     140.828  98.371 134.950  1.00  0.00    -0.243 NA
ATOM     13  C   UNL     1     140.350  99.098 133.784  1.00  0.00     0.323 C 
ATOM     14  H   UNL     1     139.758  96.691 131.482  1.00  0.00     0.170 HD
ENDROOT
BRANCH  13  15
ATOM     15  O   UNL     1     141.330  99.850 133.081  1.00  0.00    -0.364 OA
ATOM     16  H   UNL     1     142.016 100.062 133.735  1.00  0.00     0.213 HD
ENDBRANCH  13  15
BRANCH  11  17
ATOM     17  C   UNL     1     142.221  96.830 136.059  1.00  0.00     0.019 A 
ATOM     18  C   UNL     1     143.037  97.554 136.939  1.00  0.00     0.012 A 
ATOM     19  C   UNL     1     141.871  95.506 136.348  1.00  0.00     0.050 A 
ATOM     20  C   UNL     1     143.494  96.956 138.112  1.00  0.00     0.001 A 
ATOM     21  C   UNL     1     142.334  94.915 137.527  1.00  0.00     0.021 A 
ATOM     22  C   UNL     1     143.144  95.638 138.405  1.00  0.00     0.002 A 
ATOM     23  Cl  UNL     1     140.832  94.577 135.330  1.00  0.00    -0.084 Cl
ENDBRANCH  11  17
TORSDOF 2
ENDMDL
MODEL 9
REMARK VINA RESULT:    -6.134      2.838      4.464
REMARK INTER + INTRA:          -7.266
REMARK INTER:                  -6.667
REMARK INTRA:                  -0.600
REMARK UNBOUND:                -0.594
REMARK SMILES O=C1Nc2ccc(Cl)cc2C(c2ccccc2Cl)=NC1O
REMARK SMILES IDX 1 1 2 2 3 3 4 4 5 5 6 6 7 7 8 8 9 9 10 10 11 11 19 12 20 13
REMARK SMILES IDX 21 15 12 17 13 18 17 19 14 20 16 21 15 22 18 23
REMARK H PARENT 3 14 21 16
ROOT
ATOM      1  O   UNL     1     144.534  99.147 134.612  1.00  0.00    -0.269 OA
ATOM      2  C   UNL     1     143.712  98.840 133.745  1.00  0.00     0.276 C 
ATOM      3  N   UNL     1     142.375  98.907 134.046  1.00  0.00    -0.321 N 
ATOM      4  C   UNL     1     141.294  98.597 133.209  1.00  0.00     0.050 A 
ATOM      5  C   UNL     1     140.080  99.231 133.520  1.00  0.00     0.028 A 
ATOM      6  C   UNL     1     138.951  99.044 132.721  1.00  0.00     0.023 A 
ATOM      7  C   UNL     1     139.023  98.210 131.612  1.00  0.00     0.041 A 
ATOM      8  Cl  UNL     1     137.636  97.983 130.622  1.00  0.00    -0.084 Cl
ATOM      9  C   UNL     1     140.205  97.537 131.314  1.00  0.00     0.033 A 
ATOM     10  C   UNL     1     141.343  97.708 132.122  1.00  0.00     0.026 A 
ATOM     11  C   UNL     1     142.514  96.811 131.886  1.00  0.00     0.079 C 
ATOM     12  N   UNL     1     143.757  97.125 131.998  1.00  0.00    -0.243 NA
ATOM     13  C   UNL     1     144.123  98.502 132.294  1.00  0.00     0.323 C 
ATOM     14  H   UNL     1     142.196  99.328 134.948  1.00  0.00     0.170 HD
ENDROOT
BRANCH  13  15
ATOM     15  O   UNL     1     143.663  99.475 131.366  1.00  0.00    -0.364 OA
ATOM     16  H   UNL     1     143.043  99.008 130.782  1.00  0.00     0.213 HD
ENDBRANCH  13  15
BRANCH  11  17
ATOM     17  C   UNL     1     142.228  95.390 131.554  1.00  0.00     0.019 A 
ATOM     18  C   UNL     1     142.440  94.972 130.233  1.00  0.00     0.012 A 
ATOM     19  C   UNL     1     141.740  94.492 132.509  1.00  0.00     0.050 A 
ATOM     20  C   UNL     1     142.171  93.652 129.872  1.00  0.00     0.001 A 
ATOM     21  C   UNL     1     141.474  93.171 132.138  1.00  0.00     0.021 A 
ATOM     22  C   UNL     1     141.689  92.753 130.822  1.00  0.00     0.002 A 
ATOM     23  Cl  UNL     1     141.503  94.932 134.161  1.00  0.00    -0.084 Cl
ENDBRANCH  11  17
TORSDOF 2
ENDMDL
