MODEL 1
REMARK VINA RESULT:   -10.753      0.000      0.000
REMARK INTER + INTRA:         -11.142
REMARK INTER:                 -11.381
REMARK INTRA:                   0.239
REMARK UNBOUND:                 0.239
REMARK SMILES Cc1ncc2n1-c1ccc(Cl)cc1C(c1ccccc1F)=NC2
REMARK SMILES IDX 1 1 2 2 3 3 4 4 5 5 6 6 7 7 8 8 9 9 10 10 11 11 12 12 13 13
REMARK SMILES IDX 14 14 22 15 23 16 15 17 16 18 20 19 17 20 19 21 18 22 21 23
REMARK H PARENT
ROOT
ATOM      1  C   UNL     1     116.685 161.341 111.738  1.00  0.00     0.088 C 
ATOM      2  C   UNL     1     116.882 160.008 112.366  1.00  0.00     0.110 A 
ATOM      3  N   UNL     1     116.252 159.628 113.462  1.00  0.00    -0.241 NA
ATOM      4  C   UNL     1     116.558 158.311 113.632  1.00  0.00     0.137 A 
ATOM      5  C   UNL     1     117.411 157.877 112.646  1.00  0.00     0.064 A 
ATOM      6  N   UNL     1     117.648 158.971 111.840  1.00  0.00    -0.298 N 
ATOM      7  C   UNL     1     118.546 158.982 110.736  1.00  0.00     0.057 A 
ATOM      8  C   UNL     1     119.301 160.137 110.479  1.00  0.00     0.029 A 
ATOM      9  C   UNL     1     120.230 160.160 109.436  1.00  0.00     0.023 A 
ATOM     10  C   UNL     1     120.418 159.027 108.652  1.00  0.00     0.041 A 
ATOM     11  Cl  UNL     1     121.570 159.054 107.375  1.00  0.00    -0.084 Cl
ATOM     12  C   UNL     1     119.682 157.871 108.895  1.00  0.00     0.033 A 
ATOM     13  C   UNL     1     118.734 157.838 109.933  1.00  0.00     0.026 A 
ATOM     14  C   UNL     1     117.909 156.593 110.065  1.00  0.00     0.077 C 
ATOM     15  N   UNL     1     117.587 156.014 111.171  1.00  0.00    -0.278 NA
ATOM     16  C   UNL     1     118.052 156.567 112.430  1.00  0.00     0.198 C 
ENDROOT
BRANCH  14  17
ATOM     17  C   UNL     1     117.384 155.984 108.816  1.00  0.00     0.036 A 
ATOM     18  C   UNL     1     118.272 155.611 107.800  1.00  0.00     0.013 A 
ATOM     19  C   UNL     1     116.013 155.798 108.652  1.00  0.00     0.132 A 
ATOM     20  C   UNL     1     117.773 155.046 106.625  1.00  0.00     0.001 A 
ATOM     21  C   UNL     1     115.517 155.232 107.481  1.00  0.00     0.040 A 
ATOM     22  C   UNL     1     116.398 154.855 106.466  1.00  0.00     0.003 A 
ATOM     23  F   UNL     1     115.152 156.112 109.631  1.00  0.00    -0.206 F 
ENDBRANCH  14  17
TORSDOF 1
ENDMDL
MODEL 2
REMARK VINA RESULT:   -10.094      2.957      6.229
REMARK INTER + INTRA:         -10.446
REMARK INTER:                 -11.281
REMARK INTRA:                   0.836
REMARK UNBOUND:                 0.239
REMARK SMILES Cc1ncc2n1-c1ccc(Cl)cc1C(c1ccccc1F)=NC2
REMARK SMILES IDX 1 1 2 2 3 3 4 4 5 5 6 6 7 7 8 8 9 9 10 10 11 11 12 12 13 13
REMARK SMILES IDX 14 14 22 15 23 16 15 17 16 18 20 19 17 20 19 21 18 22 21 23
REMARK H PARENT
ROOT
ATOM      1  C   UNL     1     116.692 155.980 107.123  1.00  0.00     0.088 C 
ATOM      2  C   UNL     1     117.919 156.818 107.169  1.00  0.00     0.110 A 
ATOM      3  N   UNL     1     118.526 157.267 106.086  1.00  0.00    -0.241 NA
ATOM      4  C   UNL     1     119.494 158.120 106.526  1.00  0.00     0.137 A 
ATOM      5  C   UNL     1     119.505 158.179 107.898  1.00  0.00     0.064 A 
ATOM      6  N   UNL     1     118.512 157.322 108.324  1.00  0.00    -0.298 N 
ATOM      7  C   UNL     1     118.234 157.020 109.686  1.00  0.00     0.057 A 
ATOM      8  C   UNL     1     117.847 155.716 110.035  1.00  0.00     0.029 A 
ATOM      9  C   UNL     1     117.620 155.376 111.370  1.00  0.00     0.023 A 
ATOM     10  C   UNL     1     117.789 156.331 112.366  1.00  0.00     0.041 A 
ATOM     11  Cl  UNL     1     117.518 155.907 114.011  1.00  0.00    -0.084 Cl
ATOM     12  C   UNL     1     118.176 157.628 112.041  1.00  0.00     0.033 A 
ATOM     13  C   UNL     1     118.396 157.988 110.699  1.00  0.00     0.026 A 
ATOM     14  C   UNL     1     118.710 159.428 110.421  1.00  0.00     0.077 C 
ATOM     15  N   UNL     1     119.589 159.861 109.584  1.00  0.00    -0.278 NA
ATOM     16  C   UNL     1     120.385 158.912 108.828  1.00  0.00     0.198 C 
ENDROOT
BRANCH  14  17
ATOM     17  C   UNL     1     117.919 160.453 111.148  1.00  0.00     0.036 A 
ATOM     18  C   UNL     1     116.877 160.055 111.994  1.00  0.00     0.013 A 
ATOM     19  C   UNL     1     118.205 161.807 110.978  1.00  0.00     0.132 A 
ATOM     20  C   UNL     1     116.132 161.023 112.670  1.00  0.00     0.001 A 
ATOM     21  C   UNL     1     117.463 162.771 111.654  1.00  0.00     0.040 A 
ATOM     22  C   UNL     1     116.425 162.379 112.501  1.00  0.00     0.003 A 
ATOM     23  F   UNL     1     119.225 162.204 110.203  1.00  0.00    -0.206 F 
ENDBRANCH  14  17
TORSDOF 1
ENDMDL
MODEL 3
REMARK VINA RESULT:    -9.713      2.371      3.662
REMARK INTER + INTRA:         -10.042
REMARK INTER:                  -9.556
REMARK INTRA:                  -0.486
REMARK UNBOUND:                 0.239
REMARK SMILES Cc1ncc2n1-c1ccc(Cl)cc1C(c1ccccc1F)=NC2
REMARK SMILES IDX 1 1 2 2 3 3 4 4 5 5 6 6 7 7 8 8 9 9 10 10 11 11 12 12 13 13
REMARK SMILES IDX 14 14 22 15 23 16 15 17 16 18 20 19 17 20 19 21 18 22 21 23
REMARK H PARENT
ROOT
ATOM      1  C   UNL     1     113.359 158.652 114.616  1.00  0.00     0.088 C 
ATOM      2  C   UNL     1     114.549 157.782 114.811  1.00  0.00     0.110 A 
ATOM      3  N   UNL     1     114.538 156.707 115.578  1.00  0.00    -0.241 NA
ATOM      4  C   UNL     1     115.736 156.090 115.376  1.00  0.00     0.137 A 
ATOM      5  C   UNL     1     116.510 156.805 114.495  1.00  0.00     0.064 A 
ATOM      6  N   UNL     1     115.765 157.912 114.145  1.00  0.00    -0.298 N 
ATOM      7  C   UNL     1     116.227 158.965 113.307  1.00  0.00     0.057 A 
ATOM      8  C   UNL     1     115.841 160.285 113.589  1.00  0.00     0.029 A 
ATOM      9  C   UNL     1     116.321 161.345 112.816  1.00  0.00     0.023 A 
ATOM     10  C   UNL     1     117.197 161.095 111.766  1.00  0.00     0.041 A 
ATOM     11  Cl  UNL     1     117.795 162.403 110.823  1.00  0.00    -0.084 Cl
ATOM     12  C   UNL     1     117.594 159.793 111.474  1.00  0.00     0.033 A 
ATOM     13  C   UNL     1     117.108 158.715 112.235  1.00  0.00     0.026 A 
ATOM     14  C   UNL     1     117.500 157.336 111.794  1.00  0.00     0.077 C 
ATOM     15  N   UNL     1     117.841 156.364 112.568  1.00  0.00    -0.278 NA
ATOM     16  C   UNL     1     117.882 156.573 114.003  1.00  0.00     0.198 C 
ENDROOT
BRANCH  14  17
ATOM     17  C   UNL     1     117.464 157.048 110.338  1.00  0.00     0.036 A 
ATOM     18  C   UNL     1     116.293 156.543 109.759  1.00  0.00     0.013 A 
ATOM     19  C   UNL     1     118.595 157.267 109.553  1.00  0.00     0.132 A 
ATOM     20  C   UNL     1     116.266 156.267 108.390  1.00  0.00     0.001 A 
ATOM     21  C   UNL     1     118.567 156.993 108.189  1.00  0.00     0.040 A 
ATOM     22  C   UNL     1     117.401 156.493 107.607  1.00  0.00     0.003 A 
ATOM     23  F   UNL     1     119.712 157.787 110.083  1.00  0.00    -0.206 F 
ENDBRANCH  14  17
TORSDOF 1
ENDMDL
MODEL 4
REMARK VINA RESULT:    -9.448      2.294      3.348
REMARK INTER + INTRA:          -9.761
REMARK INTER:                  -9.130
REMARK INTRA:                  -0.631
REMARK UNBOUND:                 0.239
REMARK SMILES Cc1ncc2n1-c1ccc(Cl)cc1C(c1ccccc1F)=NC2
REMARK SMILES IDX 1 1 2 2 3 3 4 4 5 5 6 6 7 7 8 8 9 9 10 10 11 11 12 12 13 13
REMARK SMILES IDX 14 14 22 15 23 16 15 17 16 18 20 19 17 20 19 21 18 22 21 23
REMARK H PARENT
ROOT
ATOM      1  C   UNL     1     113.680 157.347 114.685  1.00  0.00     0.088 C 
ATOM      2  C   UNL     1     114.789 156.357 114.680  1.00  0.00     0.110 A 
ATOM      3  N   UNL     1     114.736 155.213 115.336  1.00  0.00    -0.241 NA
ATOM      4  C   UNL     1     115.845 154.515 114.961  1.00  0.00     0.137 A 
ATOM      5  C   UNL     1     116.609 155.246 114.084  1.00  0.00     0.064 A 
ATOM      6  N   UNL     1     115.951 156.447 113.917  1.00  0.00    -0.298 N 
ATOM      7  C   UNL     1     116.442 157.537 113.146  1.00  0.00     0.057 A 
ATOM      8  C   UNL     1     116.215 158.850 113.591  1.00  0.00     0.029 A 
ATOM      9  C   UNL     1     116.731 159.938 112.884  1.00  0.00     0.023 A 
ATOM     10  C   UNL     1     117.484 159.723 111.736  1.00  0.00     0.041 A 
ATOM     11  Cl  UNL     1     118.127 161.065 110.872  1.00  0.00    -0.084 Cl
ATOM     12  C   UNL     1     117.723 158.429 111.281  1.00  0.00     0.033 A 
ATOM     13  C   UNL     1     117.199 157.324 111.976  1.00  0.00     0.026 A 
ATOM     14  C   UNL     1     117.413 155.971 111.366  1.00  0.00     0.077 C 
ATOM     15  N   UNL     1     117.720 154.895 112.005  1.00  0.00    -0.278 NA
ATOM     16  C   UNL     1     117.903 154.945 113.444  1.00  0.00     0.198 C 
ENDROOT
BRANCH  14  17
ATOM     17  C   UNL     1     117.223 155.844 109.899  1.00  0.00     0.036 A 
ATOM     18  C   UNL     1     118.338 155.705 109.064  1.00  0.00     0.013 A 
ATOM     19  C   UNL     1     115.940 155.877 109.354  1.00  0.00     0.132 A 
ATOM     20  C   UNL     1     118.155 155.592 107.685  1.00  0.00     0.001 A 
ATOM     21  C   UNL     1     115.759 155.763 107.979  1.00  0.00     0.040 A 
ATOM     22  C   UNL     1     116.867 155.621 107.143  1.00  0.00     0.003 A 
ATOM     23  F   UNL     1     114.859 155.970 110.142  1.00  0.00    -0.206 F 
ENDBRANCH  14  17
TORSDOF 1
ENDMDL
MODEL 5
REMARK VINA RESULT:    -8.874      2.971      5.299
REMARK INTER + INTRA:          -9.153
REMARK INTER:                  -8.572
REMARK INTRA:                  -0.581
REMARK UNBOUND:                 0.239
REMARK SMILES Cc1ncc2n1-c1ccc(Cl)cc1C(c1ccccc1F)=NC2
REMARK SMILES IDX 1 1 2 2 3 3 4 4 5 5 6 6 7 7 8 8 9 9 10 10 11 11 12 12 13 13
REMARK SMILES IDX 14 14 22 15 23 16 15 17 16 18 20 19 17 20 19 21 18 22 21 23
REMARK H PARENT
ROOT
ATOM      1  C   UNL     1     120.678 159.419 109.713  1.00  0.00     0.088 C 
ATOM      2  C   UNL     1     119.627 158.560 109.106  1.00  0.00     0.110 A 
ATOM      3  N   UNL     1     119.842 157.793 108.053  1.00  0.00    -0.241 NA
ATOM      4  C   UNL     1     118.714 157.044 107.898  1.00  0.00     0.137 A 
ATOM      5  C   UNL     1     117.778 157.370 108.849  1.00  0.00     0.064 A 
ATOM      6  N   UNL     1     118.346 158.366 109.616  1.00  0.00    -0.298 N 
ATOM      7  C   UNL     1     117.682 159.051 110.672  1.00  0.00     0.057 A 
ATOM      8  C   UNL     1     117.929 160.420 110.864  1.00  0.00     0.029 A 
ATOM      9  C   UNL     1     117.253 161.131 111.857  1.00  0.00     0.023 A 
ATOM     10  C   UNL     1     116.317 160.484 112.657  1.00  0.00     0.041 A 
ATOM     11  Cl  UNL     1     115.478 161.364 113.872  1.00  0.00    -0.084 Cl
ATOM     12  C   UNL     1     116.055 159.128 112.479  1.00  0.00     0.033 A 
ATOM     13  C   UNL     1     116.739 158.396 111.491  1.00  0.00     0.026 A 
ATOM     14  C   UNL     1     116.477 156.921 111.431  1.00  0.00     0.077 C 
ATOM     15  N   UNL     1     116.332 156.223 110.357  1.00  0.00    -0.278 NA
ATOM     16  C   UNL     1     116.404 156.878 109.063  1.00  0.00     0.198 C 
ENDROOT
BRANCH  14  17
ATOM     17  C   UNL     1     116.409 156.185 112.718  1.00  0.00     0.036 A 
ATOM     18  C   UNL     1     115.216 155.559 113.098  1.00  0.00     0.013 A 
ATOM     19  C   UNL     1     117.525 156.130 113.552  1.00  0.00     0.132 A 
ATOM     20  C   UNL     1     115.155 154.874 114.313  1.00  0.00     0.001 A 
ATOM     21  C   UNL     1     117.464 155.445 114.762  1.00  0.00     0.040 A 
ATOM     22  C   UNL     1     116.277 154.816 115.143  1.00  0.00     0.003 A 
ATOM     23  F   UNL     1     118.687 156.690 113.186  1.00  0.00    -0.206 F 
ENDBRANCH  14  17
TORSDOF 1
ENDMDL
MODEL 6
REMARK VINA RESULT:    -8.560      2.316      4.716
REMARK INTER + INTRA:          -8.822
REMARK INTER:                  -9.658
REMARK INTRA:                   0.836
REMARK UNBOUND:                 0.239
REMARK SMILES Cc1ncc2n1-c1ccc(Cl)cc1C(c1ccccc1F)=NC2
REMARK SMILES IDX 1 1 2 2 3 3 4 4 5 5 6 6 7 7 8 8 9 9 10 10 11 11 12 12 13 13
REMARK SMILES IDX 14 14 22 15 23 16 15 17 16 18 20 19 17 20 19 21 18 22 21 23
REMARK H PARENT
ROOT
ATOM      1  C   UNL     1     117.824 154.892 112.854  1.00  0.00     0.088 C 
ATOM      2  C   UNL     1     117.438 156.328 112.865  1.00  0.00     0.110 A 
ATOM      3  N   UNL     1     117.262 157.018 113.976  1.00  0.00    -0.241 NA
ATOM      4  C   UNL     1     117.085 158.313 113.589  1.00  0.00     0.137 A 
ATOM      5  C   UNL     1     117.125 158.422 112.220  1.00  0.00     0.064 A 
ATOM      6  N   UNL     1     117.324 157.144 111.742  1.00  0.00    -0.298 N 
ATOM      7  C   UNL     1     117.348 156.791 110.364  1.00  0.00     0.057 A 
ATOM      8  C   UNL     1     116.796 155.564 109.960  1.00  0.00     0.029 A 
ATOM      9  C   UNL     1     116.757 155.214 108.609  1.00  0.00     0.023 A 
ATOM     10  C   UNL     1     117.257 156.090 107.652  1.00  0.00     0.041 A 
ATOM     11  Cl  UNL     1     117.198 155.661 105.988  1.00  0.00    -0.084 Cl
ATOM     12  C   UNL     1     117.804 157.312 108.032  1.00  0.00     0.033 A 
ATOM     13  C   UNL     1     117.863 157.672 109.391  1.00  0.00     0.026 A 
ATOM     14  C   UNL     1     118.559 158.956 109.727  1.00  0.00     0.077 C 
ATOM     15  N   UNL     1     118.168 159.822 110.598  1.00  0.00    -0.278 NA
ATOM     16  C   UNL     1     116.941 159.589 111.337  1.00  0.00     0.198 C 
ENDROOT
BRANCH  14  17
ATOM     17  C   UNL     1     119.832 159.250 109.021  1.00  0.00     0.036 A 
ATOM     18  C   UNL     1     120.369 158.307 108.136  1.00  0.00     0.013 A 
ATOM     19  C   UNL     1     120.496 160.454 109.248  1.00  0.00     0.132 A 
ATOM     20  C   UNL     1     121.569 158.584 107.479  1.00  0.00     0.001 A 
ATOM     21  C   UNL     1     121.692 160.731 108.592  1.00  0.00     0.040 A 
ATOM     22  C   UNL     1     122.229 159.795 107.706  1.00  0.00     0.003 A 
ATOM     23  F   UNL     1     119.977 161.385 110.062  1.00  0.00    -0.206 F 
ENDBRANCH  14  17
TORSDOF 1
ENDMDL
MODEL 7
REMARK VINA RESULT:    -7.364      3.393      6.551
REMARK INTER + INTRA:          -7.556
REMARK INTER:                  -7.098
REMARK INTRA:                  -0.458
REMARK UNBOUND:                 0.239
REMARK SMILES Cc1ncc2n1-c1ccc(Cl)cc1C(c1ccccc1F)=NC2
REMARK SMILES IDX 1 1 2 2 3 3 4 4 5 5 6 6 7 7 8 8 9 9 10 10 11 11 12 12 13 13
REMARK SMILES IDX 14 14 22 15 23 16 15 17 16 18 20 19 17 20 19 21 18 22 21 23
REMARK H PARENT
ROOT
ATOM      1  C   UNL     1     119.513 158.633 110.593  1.00  0.00     0.088 C 
ATOM      2  C   UNL     1     118.436 157.617 110.737  1.00  0.00     0.110 A 
ATOM      3  N   UNL     1     118.507 156.412 110.203  1.00  0.00    -0.241 NA
ATOM      4  C   UNL     1     117.432 155.725 110.684  1.00  0.00     0.137 A 
ATOM      5  C   UNL     1     116.671 156.523 111.503  1.00  0.00     0.064 A 
ATOM      6  N   UNL     1     117.294 157.753 111.523  1.00  0.00    -0.298 N 
ATOM      7  C   UNL     1     116.791 158.904 112.191  1.00  0.00     0.057 A 
ATOM      8  C   UNL     1     116.962 160.168 111.604  1.00  0.00     0.029 A 
ATOM      9  C   UNL     1     116.433 161.309 112.210  1.00  0.00     0.023 A 
ATOM     10  C   UNL     1     115.720 161.195 113.398  1.00  0.00     0.041 A 
ATOM     11  Cl  UNL     1     115.060 162.601 114.137  1.00  0.00    -0.084 Cl
ATOM     12  C   UNL     1     115.536 159.950 113.993  1.00  0.00     0.033 A 
ATOM     13  C   UNL     1     116.075 158.793 113.401  1.00  0.00     0.026 A 
ATOM     14  C   UNL     1     115.923 157.506 114.155  1.00  0.00     0.077 C 
ATOM     15  N   UNL     1     115.632 156.360 113.642  1.00  0.00    -0.278 NA
ATOM     16  C   UNL     1     115.406 156.253 112.212  1.00  0.00     0.198 C 
ENDROOT
BRANCH  14  17
ATOM     17  C   UNL     1     116.158 157.540 115.621  1.00  0.00     0.036 A 
ATOM     18  C   UNL     1     117.391 157.981 116.116  1.00  0.00     0.013 A 
ATOM     19  C   UNL     1     115.160 157.121 116.499  1.00  0.00     0.132 A 
ATOM     20  C   UNL     1     117.610 158.005 117.495  1.00  0.00     0.001 A 
ATOM     21  C   UNL     1     115.378 157.146 117.873  1.00  0.00     0.040 A 
ATOM     22  C   UNL     1     116.605 157.589 118.372  1.00  0.00     0.003 A 
ATOM     23  F   UNL     1     113.960 156.733 116.044  1.00  0.00    -0.206 F 
ENDBRANCH  14  17
TORSDOF 1
ENDMDL
MODEL 8
REMARK VINA RESULT:    -6.907      4.407      7.284
REMARK INTER + INTRA:          -7.071
REMARK INTER:                  -6.438
REMARK INTRA:                  -0.633
REMARK UNBOUND:                 0.239
REMARK SMILES Cc1ncc2n1-c1ccc(Cl)cc1C(c1ccccc1F)=NC2
REMARK SMILES IDX 1 1 2 2 3 3 4 4 5 5 6 6 7 7 8 8 9 9 10 10 11 11 12 12 13 13
REMARK SMILES IDX 14 14 22 15 23 16 15 17 16 18 20 19 17 20 19 21 18 22 21 23
REMARK H PARENT
ROOT
ATOM      1  C   UNL     1     116.711 162.472 112.425  1.00  0.00     0.088 C 
ATOM      2  C   UNL     1     117.024 161.072 112.033  1.00  0.00     0.110 A 
ATOM      3  N   UNL     1     118.014 160.756 111.218  1.00  0.00    -0.241 NA
ATOM      4  C   UNL     1     118.092 159.396 111.233  1.00  0.00     0.137 A 
ATOM      5  C   UNL     1     117.121 158.861 112.045  1.00  0.00     0.064 A 
ATOM      6  N   UNL     1     116.409 159.932 112.544  1.00  0.00    -0.298 N 
ATOM      7  C   UNL     1     115.257 159.822 113.371  1.00  0.00     0.057 A 
ATOM      8  C   UNL     1     114.207 160.741 113.210  1.00  0.00     0.029 A 
ATOM      9  C   UNL     1     113.041 160.626 113.969  1.00  0.00     0.023 A 
ATOM     10  C   UNL     1     112.910 159.588 114.884  1.00  0.00     0.041 A 
ATOM     11  Cl  UNL     1     111.468 159.442 115.811  1.00  0.00    -0.084 Cl
ATOM     12  C   UNL     1     113.938 158.664 115.055  1.00  0.00     0.033 A 
ATOM     13  C   UNL     1     115.123 158.775 114.306  1.00  0.00     0.026 A 
ATOM     14  C   UNL     1     116.222 157.805 114.621  1.00  0.00     0.077 C 
ATOM     15  N   UNL     1     116.976 157.213 113.760  1.00  0.00    -0.278 NA
ATOM     16  C   UNL     1     116.775 157.458 112.344  1.00  0.00     0.198 C 
ENDROOT
BRANCH  14  17
ATOM     17  C   UNL     1     116.495 157.521 116.053  1.00  0.00     0.036 A 
ATOM     18  C   UNL     1     117.148 158.478 116.838  1.00  0.00     0.013 A 
ATOM     19  C   UNL     1     116.114 156.301 116.608  1.00  0.00     0.132 A 
ATOM     20  C   UNL     1     117.408 158.204 118.182  1.00  0.00     0.001 A 
ATOM     21  C   UNL     1     116.372 156.029 117.948  1.00  0.00     0.040 A 
ATOM     22  C   UNL     1     117.020 156.981 118.737  1.00  0.00     0.003 A 
ATOM     23  F   UNL     1     115.453 155.388 115.881  1.00  0.00    -0.206 F 
ENDBRANCH  14  17
TORSDOF 1
ENDMDL
MODEL 9
REMARK VINA RESULT:    -6.899      4.399      6.187
REMARK INTER + INTRA:          -7.063
REMARK INTER:                  -6.573
REMARK INTRA:                  -0.490
REMARK UNBOUND:                 0.239
REMARK SMILES Cc1ncc2n1-c1ccc(Cl)cc1C(c1ccccc1F)=NC2
REMARK SMILES IDX 1 1 2 2 3 3 4 4 5 5 6 6 7 7 8 8 9 9 10 10 11 11 12 12 13 13
REMARK SMILES IDX 14 14 22 15 23 16 15 17 16 18 20 19 17 20 19 21 18 22 21 23
REMARK H PARENT
ROOT
ATOM      1  C   UNL     1     112.764 161.109 113.476  1.00  0.00     0.088 C 
ATOM      2  C   UNL     1     113.416 161.068 114.812  1.00  0.00     0.110 A 
ATOM      3  N   UNL     1     112.886 161.613 115.891  1.00  0.00    -0.241 NA
ATOM      4  C   UNL     1     113.677 161.230 116.932  1.00  0.00     0.137 A 
ATOM      5  C   UNL     1     114.726 160.461 116.490  1.00  0.00     0.064 A 
ATOM      6  N   UNL     1     114.584 160.374 115.121  1.00  0.00    -0.298 N 
ATOM      7  C   UNL     1     115.508 159.730 114.251  1.00  0.00     0.057 A 
ATOM      8  C   UNL     1     115.756 160.282 112.984  1.00  0.00     0.029 A 
ATOM      9  C   UNL     1     116.697 159.703 112.130  1.00  0.00     0.023 A 
ATOM     10  C   UNL     1     117.404 158.577 112.539  1.00  0.00     0.041 A 
ATOM     11  Cl  UNL     1     118.569 157.872 111.490  1.00  0.00    -0.084 Cl
ATOM     12  C   UNL     1     117.174 158.018 113.793  1.00  0.00     0.033 A 
ATOM     13  C   UNL     1     116.220 158.583 114.659  1.00  0.00     0.026 A 
ATOM     14  C   UNL     1     115.957 157.863 115.947  1.00  0.00     0.077 C 
ATOM     15  N   UNL     1     115.785 158.415 117.099  1.00  0.00    -0.278 NA
ATOM     16  C   UNL     1     115.859 159.860 117.218  1.00  0.00     0.198 C 
ENDROOT
BRANCH  14  17
ATOM     17  C   UNL     1     115.851 156.383 115.895  1.00  0.00     0.036 A 
ATOM     18  C   UNL     1     116.694 155.598 116.690  1.00  0.00     0.013 A 
ATOM     19  C   UNL     1     114.923 155.778 115.048  1.00  0.00     0.132 A 
ATOM     20  C   UNL     1     116.595 154.206 116.632  1.00  0.00     0.001 A 
ATOM     21  C   UNL     1     114.824 154.391 114.992  1.00  0.00     0.040 A 
ATOM     22  C   UNL     1     115.661 153.604 115.785  1.00  0.00     0.003 A 
ATOM     23  F   UNL     1     114.081 156.515 114.309  1.00  0.00    -0.206 F 
ENDBRANCH  14  17
TORSDOF 1
ENDMDL
