MODEL 1
REMARK VINA RESULT:    -9.182      0.000      0.000
REMARK INTER + INTRA:         -11.948
REMARK INTER:                 -11.329
REMARK INTRA:                  -0.619
REMARK UNBOUND:                -0.619
REMARK SMILES CCN(C(C)=O)c1cccc(-c2ccnc3c(C#N)cnn23)c1
REMARK SMILES IDX 3 1 2 2 1 3 4 4 6 5 5 6 7 7 8 8 23 9 9 10 11 11 10 12 12 13
REMARK SMILES IDX 13 14 22 15 14 16 21 17 16 18 15 19 20 20 17 21 18 22 19 23
REMARK H PARENT
ROOT
ATOM      1  N   UNL     1     118.765 156.917 106.920  1.00  0.00    -0.313 N 
ENDROOT
BRANCH   1   2
ATOM      2  C   UNL     1     118.899 157.369 105.522  1.00  0.00     0.122 C 
ATOM      3  C   UNL     1     120.090 156.732 104.815  1.00  0.00     0.028 C 
ENDBRANCH   1   2
BRANCH   1   4
ATOM      4  C   UNL     1     118.182 155.666 107.213  1.00  0.00     0.223 C 
ATOM      5  O   UNL     1     118.523 154.915 108.129  1.00  0.00    -0.275 OA
ATOM      6  C   UNL     1     117.037 155.218 106.331  1.00  0.00     0.115 C 
ENDBRANCH   1   4
BRANCH   1   7
ATOM      7  C   UNL     1     119.177 157.829 107.974  1.00  0.00     0.044 A 
ATOM      8  C   UNL     1     120.383 158.541 107.907  1.00  0.00     0.026 A 
ATOM      9  C   UNL     1     118.367 158.069 109.102  1.00  0.00     0.036 A 
ATOM     10  C   UNL     1     120.781 159.417 108.923  1.00  0.00     0.003 A 
ATOM     11  C   UNL     1     118.747 158.951 110.133  1.00  0.00     0.002 A 
ATOM     12  C   UNL     1     119.971 159.617 110.034  1.00  0.00     0.010 A 
BRANCH  11  13
ATOM     13  C   UNL     1     117.863 159.167 111.301  1.00  0.00     0.076 C 
ATOM     14  C   UNL     1     117.188 160.330 111.400  1.00  0.00     0.049 C 
ATOM     15  N   UNL     1     117.686 158.189 112.301  1.00  0.00    -0.213 N 
ATOM     16  C   UNL     1     116.311 160.479 112.589  1.00  0.00     0.116 C 
ATOM     17  N   UNL     1     118.249 156.949 112.386  1.00  0.00    -0.173 NA
ATOM     18  C   UNL     1     116.831 158.430 113.392  1.00  0.00     0.173 A 
ATOM     19  N   UNL     1     116.134 159.601 113.527  1.00  0.00    -0.236 NA
ATOM     20  C   UNL     1     117.772 156.434 113.520  1.00  0.00     0.157 A 
ATOM     21  C   UNL     1     116.893 157.301 114.177  1.00  0.00     0.117 A 
ATOM     22  C   UNL     1     116.202 157.070 115.397  1.00  0.00     0.105 C 
ATOM     23  N   UNL     1     115.655 156.840 116.395  1.00  0.00    -0.192 NA
ENDBRANCH  11  13
ENDBRANCH   1   7
TORSDOF 4
ENDMDL
MODEL 2
REMARK VINA RESULT:    -8.749      2.218      6.946
REMARK INTER + INTRA:         -11.414
REMARK INTER:                 -10.840
REMARK INTRA:                  -0.574
REMARK UNBOUND:                -0.619
REMARK SMILES CCN(C(C)=O)c1cccc(-c2ccnc3c(C#N)cnn23)c1
REMARK SMILES IDX 3 1 2 2 1 3 4 4 6 5 5 6 7 7 8 8 23 9 9 10 11 11 10 12 12 13
REMARK SMILES IDX 13 14 22 15 14 16 21 17 16 18 15 19 20 20 17 21 18 22 19 23
REMARK H PARENT
ROOT
ATOM      1  N   UNL     1     117.025 156.552 113.337  1.00  0.00    -0.313 N 
ENDROOT
BRANCH   1   2
ATOM      2  C   UNL     1     117.425 155.269 112.730  1.00  0.00     0.122 C 
ATOM      3  C   UNL     1     117.729 154.200 113.773  1.00  0.00     0.028 C 
ENDBRANCH   1   2
BRANCH   1   4
ATOM      4  C   UNL     1     116.373 156.578 114.587  1.00  0.00     0.223 C 
ATOM      5  O   UNL     1     116.907 156.837 115.668  1.00  0.00    -0.275 OA
ATOM      6  C   UNL     1     114.891 156.270 114.596  1.00  0.00     0.115 C 
ENDBRANCH   1   4
BRANCH   1   7
ATOM      7  C   UNL     1     117.252 157.768 112.573  1.00  0.00     0.044 A 
ATOM      8  C   UNL     1     116.668 158.990 112.935  1.00  0.00     0.026 A 
ATOM      9  C   UNL     1     118.100 157.785 111.447  1.00  0.00     0.036 A 
ATOM     10  C   UNL     1     116.885 160.160 112.198  1.00  0.00     0.003 A 
ATOM     11  C   UNL     1     118.336 158.953 110.695  1.00  0.00     0.002 A 
ATOM     12  C   UNL     1     117.709 160.141 111.079  1.00  0.00     0.010 A 
BRANCH  11  13
ATOM     13  C   UNL     1     119.233 158.921 109.517  1.00  0.00     0.076 C 
ATOM     14  C   UNL     1     120.401 159.589 109.570  1.00  0.00     0.049 C 
ATOM     15  N   UNL     1     118.915 158.195 108.351  1.00  0.00    -0.213 N 
ATOM     16  C   UNL     1     121.259 159.507 108.362  1.00  0.00     0.116 C 
ATOM     17  N   UNL     1     117.807 157.440 108.094  1.00  0.00    -0.173 NA
ATOM     18  C   UNL     1     119.798 158.183 107.255  1.00  0.00     0.173 A 
ATOM     19  N   UNL     1     120.991 158.854 107.273  1.00  0.00    -0.236 NA
ATOM     20  C   UNL     1     117.985 156.983 106.854  1.00  0.00     0.157 A 
ATOM     21  C   UNL     1     119.193 157.407 106.292  1.00  0.00     0.117 A 
ATOM     22  C   UNL     1     119.701 157.101 105.000  1.00  0.00     0.105 C 
ATOM     23  N   UNL     1     120.079 156.824 103.937  1.00  0.00    -0.192 NA
ENDBRANCH  11  13
ENDBRANCH   1   7
TORSDOF 4
ENDMDL
MODEL 3
REMARK VINA RESULT:    -8.741      2.345      7.301
REMARK INTER + INTRA:         -11.404
REMARK INTER:                 -11.008
REMARK INTRA:                  -0.396
REMARK UNBOUND:                -0.619
REMARK SMILES CCN(C(C)=O)c1cccc(-c2ccnc3c(C#N)cnn23)c1
REMARK SMILES IDX 3 1 2 2 1 3 4 4 6 5 5 6 7 7 8 8 23 9 9 10 11 11 10 12 12 13
REMARK SMILES IDX 13 14 22 15 14 16 21 17 16 18 15 19 20 20 17 21 18 22 19 23
REMARK H PARENT
ROOT
ATOM      1  N   UNL     1     116.237 155.400 113.934  1.00  0.00    -0.313 N 
ENDROOT
BRANCH   1   2
ATOM      2  C   UNL     1     114.895 155.443 114.544  1.00  0.00     0.122 C 
ATOM      3  C   UNL     1     113.861 154.668 113.735  1.00  0.00     0.028 C 
ENDBRANCH   1   2
BRANCH   1   4
ATOM      4  C   UNL     1     117.192 154.461 114.375  1.00  0.00     0.223 C 
ATOM      5  O   UNL     1     118.223 154.153 113.773  1.00  0.00    -0.275 OA
ATOM      6  C   UNL     1     116.929 153.785 115.703  1.00  0.00     0.115 C 
ENDBRANCH   1   4
BRANCH   1   7
ATOM      7  C   UNL     1     116.561 156.400 112.930  1.00  0.00     0.044 A 
ATOM      8  C   UNL     1     116.790 157.742 113.268  1.00  0.00     0.026 A 
ATOM      9  C   UNL     1     116.696 156.063 111.568  1.00  0.00     0.036 A 
ATOM     10  C   UNL     1     117.099 158.705 112.301  1.00  0.00     0.003 A 
ATOM     11  C   UNL     1     117.012 157.016 110.580  1.00  0.00     0.002 A 
ATOM     12  C   UNL     1     117.203 158.347 110.962  1.00  0.00     0.010 A 
BRANCH  11  13
ATOM     13  C   UNL     1     117.139 156.615 109.161  1.00  0.00     0.076 C 
ATOM     14  C   UNL     1     116.159 155.877 108.602  1.00  0.00     0.049 C 
ATOM     15  N   UNL     1     118.239 156.999 108.367  1.00  0.00    -0.213 N 
ATOM     16  C   UNL     1     116.342 155.518 107.174  1.00  0.00     0.116 C 
ATOM     17  N   UNL     1     119.320 157.755 108.720  1.00  0.00    -0.173 NA
ATOM     18  C   UNL     1     118.320 156.604 107.018  1.00  0.00     0.173 A 
ATOM     19  N   UNL     1     117.345 155.851 106.421  1.00  0.00    -0.236 NA
ATOM     20  C   UNL     1     120.071 157.811 107.619  1.00  0.00     0.157 A 
ATOM     21  C   UNL     1     119.502 157.124 106.542  1.00  0.00     0.117 A 
ATOM     22  C   UNL     1     120.026 156.989 105.228  1.00  0.00     0.105 C 
ATOM     23  N   UNL     1     120.489 156.906 104.167  1.00  0.00    -0.192 NA
ENDBRANCH  11  13
ENDBRANCH   1   7
TORSDOF 4
ENDMDL
MODEL 4
REMARK VINA RESULT:    -8.724      1.244      2.247
REMARK INTER + INTRA:         -11.383
REMARK INTER:                 -10.874
REMARK INTRA:                  -0.510
REMARK UNBOUND:                -0.619
REMARK SMILES CCN(C(C)=O)c1cccc(-c2ccnc3c(C#N)cnn23)c1
REMARK SMILES IDX 3 1 2 2 1 3 4 4 6 5 5 6 7 7 8 8 23 9 9 10 11 11 10 12 12 13
REMARK SMILES IDX 13 14 22 15 14 16 21 17 16 18 15 19 20 20 17 21 18 22 19 23
REMARK H PARENT
ROOT
ATOM      1  N   UNL     1     118.663 156.867 107.051  1.00  0.00    -0.313 N 
ENDROOT
BRANCH   1   2
ATOM      2  C   UNL     1     118.871 157.476 105.723  1.00  0.00     0.122 C 
ATOM      3  C   UNL     1     120.020 156.828 104.958  1.00  0.00     0.028 C 
ENDBRANCH   1   2
BRANCH   1   4
ATOM      4  C   UNL     1     118.060 155.598 107.168  1.00  0.00     0.223 C 
ATOM      5  O   UNL     1     118.402 154.713 107.955  1.00  0.00    -0.275 OA
ATOM      6  C   UNL     1     116.890 155.306 106.253  1.00  0.00     0.115 C 
ENDBRANCH   1   4
BRANCH   1   7
ATOM      7  C   UNL     1     119.025 157.648 108.222  1.00  0.00     0.044 A 
ATOM      8  C   UNL     1     120.062 158.591 108.193  1.00  0.00     0.026 A 
ATOM      9  C   UNL     1     118.326 157.519 109.440  1.00  0.00     0.036 A 
ATOM     10  C   UNL     1     120.412 159.340 109.321  1.00  0.00     0.003 A 
ATOM     11  C   UNL     1     118.659 158.268 110.586  1.00  0.00     0.002 A 
ATOM     12  C   UNL     1     119.719 159.176 110.515  1.00  0.00     0.010 A 
BRANCH  11  13
ATOM     13  C   UNL     1     117.899 158.096 111.844  1.00  0.00     0.076 C 
ATOM     14  C   UNL     1     118.049 156.955 112.545  1.00  0.00     0.049 C 
ATOM     15  N   UNL     1     117.039 159.095 112.346  1.00  0.00    -0.213 N 
ATOM     16  C   UNL     1     117.268 156.850 113.803  1.00  0.00     0.116 C 
ATOM     17  N   UNL     1     116.759 160.321 111.814  1.00  0.00    -0.173 NA
ATOM     18  C   UNL     1     116.340 158.897 113.550  1.00  0.00     0.173 A 
ATOM     19  N   UNL     1     116.466 157.749 114.285  1.00  0.00    -0.236 NA
ATOM     20  C   UNL     1     115.884 160.867 112.659  1.00  0.00     0.157 A 
ATOM     21  C   UNL     1     115.593 160.037 113.745  1.00  0.00     0.117 A 
ATOM     22  C   UNL     1     114.715 160.307 114.830  1.00  0.00     0.105 C 
ATOM     23  N   UNL     1     113.991 160.570 115.699  1.00  0.00    -0.192 NA
ENDBRANCH  11  13
ENDBRANCH   1   7
TORSDOF 4
ENDMDL
MODEL 5
REMARK VINA RESULT:    -8.707      1.667      3.038
REMARK INTER + INTRA:         -11.362
REMARK INTER:                 -10.843
REMARK INTRA:                  -0.520
REMARK UNBOUND:                -0.619
REMARK SMILES CCN(C(C)=O)c1cccc(-c2ccnc3c(C#N)cnn23)c1
REMARK SMILES IDX 3 1 2 2 1 3 4 4 6 5 5 6 7 7 8 8 23 9 9 10 11 11 10 12 12 13
REMARK SMILES IDX 13 14 22 15 14 16 21 17 16 18 15 19 20 20 17 21 18 22 19 23
REMARK H PARENT
ROOT
ATOM      1  N   UNL     1     118.489 156.599 107.562  1.00  0.00    -0.313 N 
ENDROOT
BRANCH   1   2
ATOM      2  C   UNL     1     117.921 155.242 107.452  1.00  0.00     0.122 C 
ATOM      3  C   UNL     1     116.834 155.150 106.387  1.00  0.00     0.028 C 
ENDBRANCH   1   2
BRANCH   1   4
ATOM      4  C   UNL     1     118.926 157.286 106.410  1.00  0.00     0.223 C 
ATOM      5  O   UNL     1     118.360 158.253 105.896  1.00  0.00    -0.275 OA
ATOM      6  C   UNL     1     120.202 156.795 105.759  1.00  0.00     0.115 C 
ENDBRANCH   1   4
BRANCH   1   7
ATOM      7  C   UNL     1     118.654 157.163 108.891  1.00  0.00     0.044 A 
ATOM      8  C   UNL     1     119.413 158.320 109.116  1.00  0.00     0.026 A 
ATOM      9  C   UNL     1     118.031 156.591 110.019  1.00  0.00     0.036 A 
ATOM     10  C   UNL     1     119.575 158.861 110.396  1.00  0.00     0.003 A 
ATOM     11  C   UNL     1     118.176 157.123 111.315  1.00  0.00     0.002 A 
ATOM     12  C   UNL     1     118.965 158.263 111.493  1.00  0.00     0.010 A 
BRANCH  11  13
ATOM     13  C   UNL     1     117.503 156.485 112.470  1.00  0.00     0.076 C 
ATOM     14  C   UNL     1     117.757 155.189 112.737  1.00  0.00     0.049 C 
ATOM     15  N   UNL     1     116.624 157.195 113.313  1.00  0.00    -0.213 N 
ATOM     16  C   UNL     1     117.060 154.614 113.914  1.00  0.00     0.116 C 
ATOM     17  N   UNL     1     116.247 158.505 113.239  1.00  0.00    -0.173 NA
ATOM     18  C   UNL     1     116.011 156.556 114.406  1.00  0.00     0.173 A 
ATOM     19  N   UNL     1     116.243 155.239 114.703  1.00  0.00    -0.236 NA
ATOM     20  C   UNL     1     115.397 158.673 114.253  1.00  0.00     0.157 A 
ATOM     21  C   UNL     1     115.218 157.508 115.005  1.00  0.00     0.117 A 
ATOM     22  C   UNL     1     114.395 157.336 116.151  1.00  0.00     0.105 C 
ATOM     23  N   UNL     1     113.712 157.240 117.085  1.00  0.00    -0.192 NA
ENDBRANCH  11  13
ENDBRANCH   1   7
TORSDOF 4
ENDMDL
MODEL 6
REMARK VINA RESULT:    -8.608      2.820      7.412
REMARK INTER + INTRA:         -11.240
REMARK INTER:                 -10.752
REMARK INTRA:                  -0.489
REMARK UNBOUND:                -0.619
REMARK SMILES CCN(C(C)=O)c1cccc(-c2ccnc3c(C#N)cnn23)c1
REMARK SMILES IDX 3 1 2 2 1 3 4 4 6 5 5 6 7 7 8 8 23 9 9 10 11 11 10 12 12 13
REMARK SMILES IDX 13 14 22 15 14 16 21 17 16 18 15 19 20 20 17 21 18 22 19 23
REMARK H PARENT
ROOT
ATOM      1  N   UNL     1     116.224 160.971 112.815  1.00  0.00    -0.313 N 
ENDROOT
BRANCH   1   2
ATOM      2  C   UNL     1     116.584 162.281 112.240  1.00  0.00     0.122 C 
ATOM      3  C   UNL     1     116.473 163.413 113.255  1.00  0.00     0.028 C 
ENDBRANCH   1   2
BRANCH   1   4
ATOM      4  C   UNL     1     115.269 160.883 113.849  1.00  0.00     0.223 C 
ATOM      5  O   UNL     1     115.523 160.828 115.055  1.00  0.00    -0.275 OA
ATOM      6  C   UNL     1     113.812 160.863 113.440  1.00  0.00     0.115 C 
ENDBRANCH   1   4
BRANCH   1   7
ATOM      7  C   UNL     1     116.938 159.798 112.338  1.00  0.00     0.044 A 
ATOM      8  C   UNL     1     116.837 158.557 112.982  1.00  0.00     0.026 A 
ATOM      9  C   UNL     1     117.742 159.843 111.181  1.00  0.00     0.036 A 
ATOM     10  C   UNL     1     117.527 157.429 112.525  1.00  0.00     0.003 A 
ATOM     11  C   UNL     1     118.440 158.717 110.701  1.00  0.00     0.002 A 
ATOM     12  C   UNL     1     118.330 157.509 111.393  1.00  0.00     0.010 A 
BRANCH  11  13
ATOM     13  C   UNL     1     119.276 158.814 109.483  1.00  0.00     0.076 C 
ATOM     14  C   UNL     1     120.384 159.580 109.513  1.00  0.00     0.049 C 
ATOM     15  N   UNL     1     118.964 158.113 108.300  1.00  0.00    -0.213 N 
ATOM     16  C   UNL     1     121.184 159.625 108.263  1.00  0.00     0.116 C 
ATOM     17  N   UNL     1     117.914 157.274 108.060  1.00  0.00    -0.173 NA
ATOM     18  C   UNL     1     119.789 158.224 107.165  1.00  0.00     0.173 A 
ATOM     19  N   UNL     1     120.919 158.997 107.160  1.00  0.00    -0.236 NA
ATOM     20  C   UNL     1     118.069 156.888 106.794  1.00  0.00     0.157 A 
ATOM     21  C   UNL     1     119.206 157.439 106.196  1.00  0.00     0.117 A 
ATOM     22  C   UNL     1     119.673 157.233 104.869  1.00  0.00     0.105 C 
ATOM     23  N   UNL     1     120.020 157.036 103.779  1.00  0.00    -0.192 NA
ENDBRANCH  11  13
ENDBRANCH   1   7
TORSDOF 4
ENDMDL
MODEL 7
REMARK VINA RESULT:    -8.552      1.500      2.026
REMARK INTER + INTRA:         -11.171
REMARK INTER:                 -10.967
REMARK INTRA:                  -0.204
REMARK UNBOUND:                -0.619
REMARK SMILES CCN(C(C)=O)c1cccc(-c2ccnc3c(C#N)cnn23)c1
REMARK SMILES IDX 3 1 2 2 1 3 4 4 6 5 5 6 7 7 8 8 23 9 9 10 11 11 10 12 12 13
REMARK SMILES IDX 13 14 22 15 14 16 21 17 16 18 15 19 20 20 17 21 18 22 19 23
REMARK H PARENT
ROOT
ATOM      1  N   UNL     1     118.219 157.161 107.189  1.00  0.00    -0.313 N 
ENDROOT
BRANCH   1   2
ATOM      2  C   UNL     1     116.998 156.334 107.221  1.00  0.00     0.122 C 
ATOM      3  C   UNL     1     117.151 155.037 106.433  1.00  0.00     0.028 C 
ENDBRANCH   1   2
BRANCH   1   4
ATOM      4  C   UNL     1     119.001 157.234 106.018  1.00  0.00     0.223 C 
ATOM      5  O   UNL     1     118.610 157.635 104.919  1.00  0.00    -0.275 OA
ATOM      6  C   UNL     1     120.444 156.789 106.125  1.00  0.00     0.115 C 
ENDBRANCH   1   4
BRANCH   1   7
ATOM      7  C   UNL     1     118.624 157.825 108.416  1.00  0.00     0.044 A 
ATOM      8  C   UNL     1     119.780 158.617 108.483  1.00  0.00     0.026 A 
ATOM      9  C   UNL     1     117.855 157.734 109.594  1.00  0.00     0.036 A 
ATOM     10  C   UNL     1     120.172 159.254 109.666  1.00  0.00     0.003 A 
ATOM     11  C   UNL     1     118.229 158.372 110.793  1.00  0.00     0.002 A 
ATOM     12  C   UNL     1     119.405 159.128 110.818  1.00  0.00     0.010 A 
BRANCH  11  13
ATOM     13  C   UNL     1     117.391 158.245 112.006  1.00  0.00     0.076 C 
ATOM     14  C   UNL     1     116.731 159.329 112.459  1.00  0.00     0.049 C 
ATOM     15  N   UNL     1     117.240 157.021 112.691  1.00  0.00    -0.213 N 
ATOM     16  C   UNL     1     115.899 159.131 113.673  1.00  0.00     0.116 C 
ATOM     17  N   UNL     1     117.794 155.808 112.396  1.00  0.00    -0.173 NA
ATOM     18  C   UNL     1     116.427 156.938 113.836  1.00  0.00     0.173 A 
ATOM     19  N   UNL     1     115.747 158.021 114.326  1.00  0.00    -0.236 NA
ATOM     20  C   UNL     1     117.353 154.991 113.352  1.00  0.00     0.157 A 
ATOM     21  C   UNL     1     116.507 155.631 114.262  1.00  0.00     0.117 A 
ATOM     22  C   UNL     1     115.857 155.060 115.390  1.00  0.00     0.105 C 
ATOM     23  N   UNL     1     115.344 154.553 116.300  1.00  0.00    -0.192 NA
ENDBRANCH  11  13
ENDBRANCH   1   7
TORSDOF 4
ENDMDL
MODEL 8
REMARK VINA RESULT:    -8.174      2.498      7.473
REMARK INTER + INTRA:         -10.705
REMARK INTER:                 -10.454
REMARK INTRA:                  -0.251
REMARK UNBOUND:                -0.619
REMARK SMILES CCN(C(C)=O)c1cccc(-c2ccnc3c(C#N)cnn23)c1
REMARK SMILES IDX 3 1 2 2 1 3 4 4 6 5 5 6 7 7 8 8 23 9 9 10 11 11 10 12 12 13
REMARK SMILES IDX 13 14 22 15 14 16 21 17 16 18 15 19 20 20 17 21 18 22 19 23
REMARK H PARENT
ROOT
ATOM      1  N   UNL     1     116.396 158.177 114.814  1.00  0.00    -0.313 N 
ENDROOT
BRANCH   1   2
ATOM      2  C   UNL     1     116.940 157.910 116.159  1.00  0.00     0.122 C 
ATOM      3  C   UNL     1     116.037 157.000 116.984  1.00  0.00     0.028 C 
ENDBRANCH   1   2
BRANCH   1   4
ATOM      4  C   UNL     1     115.420 159.176 114.624  1.00  0.00     0.223 C 
ATOM      5  O   UNL     1     115.648 160.370 114.419  1.00  0.00    -0.275 OA
ATOM      6  C   UNL     1     113.971 158.739 114.669  1.00  0.00     0.115 C 
ENDBRANCH   1   4
BRANCH   1   7
ATOM      7  C   UNL     1     116.839 157.330 113.719  1.00  0.00     0.044 A 
ATOM      8  C   UNL     1     116.604 155.947 113.711  1.00  0.00     0.026 A 
ATOM      9  C   UNL     1     117.500 157.862 112.594  1.00  0.00     0.036 A 
ATOM     10  C   UNL     1     117.033 155.131 112.658  1.00  0.00     0.003 A 
ATOM     11  C   UNL     1     117.935 157.058 111.521  1.00  0.00     0.002 A 
ATOM     12  C   UNL     1     117.702 155.682 111.571  1.00  0.00     0.010 A 
BRANCH  11  13
ATOM     13  C   UNL     1     118.628 157.663 110.361  1.00  0.00     0.076 C 
ATOM     14  C   UNL     1     119.511 158.658 110.576  1.00  0.00     0.049 C 
ATOM     15  N   UNL     1     118.412 157.217 109.041  1.00  0.00    -0.213 N 
ATOM     16  C   UNL     1     120.180 159.212 109.372  1.00  0.00     0.116 C 
ATOM     17  N   UNL     1     117.587 156.221 108.604  1.00  0.00    -0.173 NA
ATOM     18  C   UNL     1     119.096 157.812 107.965  1.00  0.00     0.173 A 
ATOM     19  N   UNL     1     119.997 158.827 108.147  1.00  0.00    -0.236 NA
ATOM     20  C   UNL     1     117.737 156.210 107.279  1.00  0.00     0.157 A 
ATOM     21  C   UNL     1     118.655 157.165 106.832  1.00  0.00     0.117 A 
ATOM     22  C   UNL     1     119.058 157.419 105.493  1.00  0.00     0.105 C 
ATOM     23  N   UNL     1     119.360 157.591 104.385  1.00  0.00    -0.192 NA
ENDBRANCH  11  13
ENDBRANCH   1   7
TORSDOF 4
ENDMDL
MODEL 9
REMARK VINA RESULT:    -7.664      2.678      7.497
REMARK INTER + INTRA:         -10.075
REMARK INTER:                  -9.371
REMARK INTRA:                  -0.705
REMARK UNBOUND:                -0.619
REMARK SMILES CCN(C(C)=O)c1cccc(-c2ccnc3c(C#N)cnn23)c1
REMARK SMILES IDX 3 1 2 2 1 3 4 4 6 5 5 6 7 7 8 8 23 9 9 10 11 11 10 12 12 13
REMARK SMILES IDX 13 14 22 15 14 16 21 17 16 18 15 19 20 20 17 21 18 22 19 23
REMARK H PARENT
ROOT
ATOM      1  N   UNL     1     114.838 159.071 114.405  1.00  0.00    -0.313 N 
ENDROOT
BRANCH   1   2
ATOM      2  C   UNL     1     113.622 158.446 114.959  1.00  0.00     0.122 C 
ATOM      3  C   UNL     1     113.620 158.423 116.483  1.00  0.00     0.028 C 
ENDBRANCH   1   2
BRANCH   1   4
ATOM      4  C   UNL     1     114.856 160.447 114.097  1.00  0.00     0.223 C 
ATOM      5  O   UNL     1     115.839 161.186 114.180  1.00  0.00    -0.275 OA
ATOM      6  C   UNL     1     113.558 161.062 113.618  1.00  0.00     0.115 C 
ENDBRANCH   1   4
BRANCH   1   7
ATOM      7  C   UNL     1     115.975 158.213 114.117  1.00  0.00     0.044 A 
ATOM      8  C   UNL     1     116.727 157.612 115.137  1.00  0.00     0.026 A 
ATOM      9  C   UNL     1     116.358 157.914 112.794  1.00  0.00     0.036 A 
ATOM     10  C   UNL     1     117.824 156.789 114.860  1.00  0.00     0.003 A 
ATOM     11  C   UNL     1     117.456 157.083 112.493  1.00  0.00     0.002 A 
ATOM     12  C   UNL     1     118.191 156.530 113.545  1.00  0.00     0.010 A 
BRANCH  11  13
ATOM     13  C   UNL     1     117.823 156.801 111.087  1.00  0.00     0.076 C 
ATOM     14  C   UNL     1     117.316 155.704 110.489  1.00  0.00     0.049 C 
ATOM     15  N   UNL     1     118.666 157.653 110.345  1.00  0.00    -0.213 N 
ATOM     16  C   UNL     1     117.714 155.485 109.076  1.00  0.00     0.116 C 
ATOM     17  N   UNL     1     119.265 158.814 110.743  1.00  0.00    -0.173 NA
ATOM     18  C   UNL     1     118.986 157.355 109.008  1.00  0.00     0.173 A 
ATOM     19  N   UNL     1     118.492 156.247 108.371  1.00  0.00    -0.236 NA
ATOM     20  C   UNL     1     119.962 159.219 109.681  1.00  0.00     0.157 A 
ATOM     21  C   UNL     1     119.824 158.362 108.585  1.00  0.00     0.117 A 
ATOM     22  C   UNL     1     120.417 158.496 107.301  1.00  0.00     0.105 C 
ATOM     23  N   UNL     1     120.921 158.645 106.265  1.00  0.00    -0.192 NA
ENDBRANCH  11  13
ENDBRANCH   1   7
TORSDOF 4
ENDMDL
