MODEL 1
REMARK VINA RESULT:   -10.745      0.000      0.000
REMARK INTER + INTRA:         -11.146
REMARK INTER:                 -11.373
REMARK INTRA:                   0.227
REMARK UNBOUND:                 0.227
REMARK SMILES Cc1ncc2n1-c1ccc(Cl)cc1C(c1ccccc1F)=NC2
REMARK SMILES IDX 1 1 2 2 3 3 4 4 5 5 6 6 7 7 8 8 9 9 10 10 11 11 12 12 13 13
REMARK SMILES IDX 14 14 22 15 23 16 15 17 16 18 20 19 17 20 19 21 18 22 21 23
REMARK H PARENT
ROOT
ATOM      1  C   UNL     1     116.692 161.321 111.753  1.00  0.00     0.088 C 
ATOM      2  C   UNL     1     116.889 159.983 112.372  1.00  0.00     0.110 A 
ATOM      3  N   UNL     1     116.258 159.595 113.464  1.00  0.00    -0.241 NA
ATOM      4  C   UNL     1     116.564 158.276 113.625  1.00  0.00     0.137 A 
ATOM      5  C   UNL     1     117.417 157.850 112.636  1.00  0.00     0.064 A 
ATOM      6  N   UNL     1     117.655 158.949 111.839  1.00  0.00    -0.298 N 
ATOM      7  C   UNL     1     118.554 158.969 110.736  1.00  0.00     0.057 A 
ATOM      8  C   UNL     1     119.310 160.126 110.488  1.00  0.00     0.029 A 
ATOM      9  C   UNL     1     120.240 160.156 109.446  1.00  0.00     0.023 A 
ATOM     10  C   UNL     1     120.429 159.029 108.654  1.00  0.00     0.041 A 
ATOM     11  Cl  UNL     1     121.581 159.066 107.378  1.00  0.00    -0.084 Cl
ATOM     12  C   UNL     1     119.692 157.872 108.887  1.00  0.00     0.033 A 
ATOM     13  C   UNL     1     118.743 157.831 109.924  1.00  0.00     0.026 A 
ATOM     14  C   UNL     1     117.917 156.585 110.046  1.00  0.00     0.077 C 
ATOM     15  N   UNL     1     117.594 155.998 111.147  1.00  0.00    -0.278 NA
ATOM     16  C   UNL     1     118.058 156.541 112.410  1.00  0.00     0.198 C 
ENDROOT
BRANCH  14  17
ATOM     17  C   UNL     1     117.394 155.986 108.792  1.00  0.00     0.036 A 
ATOM     18  C   UNL     1     118.283 155.613 107.777  1.00  0.00     0.013 A 
ATOM     19  C   UNL     1     116.022 155.809 108.622  1.00  0.00     0.132 A 
ATOM     20  C   UNL     1     117.785 155.056 106.598  1.00  0.00     0.001 A 
ATOM     21  C   UNL     1     115.527 155.252 107.446  1.00  0.00     0.040 A 
ATOM     22  C   UNL     1     116.410 154.875 106.433  1.00  0.00     0.003 A 
ATOM     23  F   UNL     1     115.159 156.124 109.598  1.00  0.00    -0.206 F 
ENDBRANCH  14  17
TORSDOF 1
ENDMDL
MODEL 2
REMARK VINA RESULT:   -10.104      2.947      6.228
REMARK INTER + INTRA:         -10.467
REMARK INTER:                 -11.322
REMARK INTRA:                   0.855
REMARK UNBOUND:                 0.227
REMARK SMILES Cc1ncc2n1-c1ccc(Cl)cc1C(c1ccccc1F)=NC2
REMARK SMILES IDX 1 1 2 2 3 3 4 4 5 5 6 6 7 7 8 8 9 9 10 10 11 11 12 12 13 13
REMARK SMILES IDX 14 14 22 15 23 16 15 17 16 18 20 19 17 20 19 21 18 22 21 23
REMARK H PARENT
ROOT
ATOM      1  C   UNL     1     116.661 155.963 107.167  1.00  0.00     0.088 C 
ATOM      2  C   UNL     1     117.892 156.796 107.210  1.00  0.00     0.110 A 
ATOM      3  N   UNL     1     118.502 157.238 106.126  1.00  0.00    -0.241 NA
ATOM      4  C   UNL     1     119.473 158.088 106.563  1.00  0.00     0.137 A 
ATOM      5  C   UNL     1     119.484 158.153 107.935  1.00  0.00     0.064 A 
ATOM      6  N   UNL     1     118.486 157.302 108.364  1.00  0.00    -0.298 N 
ATOM      7  C   UNL     1     118.206 157.007 109.727  1.00  0.00     0.057 A 
ATOM      8  C   UNL     1     117.812 155.707 110.081  1.00  0.00     0.029 A 
ATOM      9  C   UNL     1     117.582 155.373 111.417  1.00  0.00     0.023 A 
ATOM     10  C   UNL     1     117.755 156.332 112.409  1.00  0.00     0.041 A 
ATOM     11  Cl  UNL     1     117.481 155.916 114.055  1.00  0.00    -0.084 Cl
ATOM     12  C   UNL     1     118.149 157.625 112.079  1.00  0.00     0.033 A 
ATOM     13  C   UNL     1     118.371 157.979 110.736  1.00  0.00     0.026 A 
ATOM     14  C   UNL     1     118.692 159.416 110.452  1.00  0.00     0.077 C 
ATOM     15  N   UNL     1     119.573 159.842 109.614  1.00  0.00    -0.278 NA
ATOM     16  C   UNL     1     120.366 158.886 108.862  1.00  0.00     0.198 C 
ENDROOT
BRANCH  14  17
ATOM     17  C   UNL     1     117.905 160.448 111.174  1.00  0.00     0.036 A 
ATOM     18  C   UNL     1     116.869 160.058 112.031  1.00  0.00     0.013 A 
ATOM     19  C   UNL     1     118.189 161.800 110.988  1.00  0.00     0.132 A 
ATOM     20  C   UNL     1     116.128 161.032 112.702  1.00  0.00     0.001 A 
ATOM     21  C   UNL     1     117.451 162.770 111.660  1.00  0.00     0.040 A 
ATOM     22  C   UNL     1     116.419 162.386 112.518  1.00  0.00     0.003 A 
ATOM     23  F   UNL     1     119.203 162.190 110.203  1.00  0.00    -0.206 F 
ENDBRANCH  14  17
TORSDOF 1
ENDMDL
MODEL 3
REMARK VINA RESULT:    -9.684      2.373      3.663
REMARK INTER + INTRA:         -10.023
REMARK INTER:                  -9.528
REMARK INTRA:                  -0.495
REMARK UNBOUND:                 0.227
REMARK SMILES Cc1ncc2n1-c1ccc(Cl)cc1C(c1ccccc1F)=NC2
REMARK SMILES IDX 1 1 2 2 3 3 4 4 5 5 6 6 7 7 8 8 9 9 10 10 11 11 12 12 13 13
REMARK SMILES IDX 14 14 22 15 23 16 15 17 16 18 20 19 17 20 19 21 18 22 21 23
REMARK H PARENT
ROOT
ATOM      1  C   UNL     1     113.370 158.601 114.615  1.00  0.00     0.088 C 
ATOM      2  C   UNL     1     114.560 157.727 114.790  1.00  0.00     0.110 A 
ATOM      3  N   UNL     1     114.552 156.640 115.540  1.00  0.00    -0.241 NA
ATOM      4  C   UNL     1     115.748 156.026 115.321  1.00  0.00     0.137 A 
ATOM      5  C   UNL     1     116.519 156.754 114.448  1.00  0.00     0.064 A 
ATOM      6  N   UNL     1     115.774 157.868 114.121  1.00  0.00    -0.298 N 
ATOM      7  C   UNL     1     116.232 158.934 113.298  1.00  0.00     0.057 A 
ATOM      8  C   UNL     1     115.849 160.250 113.604  1.00  0.00     0.029 A 
ATOM      9  C   UNL     1     116.325 161.322 112.846  1.00  0.00     0.023 A 
ATOM     10  C   UNL     1     117.196 161.089 111.788  1.00  0.00     0.041 A 
ATOM     11  Cl  UNL     1     117.790 162.412 110.863  1.00  0.00    -0.084 Cl
ATOM     12  C   UNL     1     117.591 159.792 111.472  1.00  0.00     0.033 A 
ATOM     13  C   UNL     1     117.108 158.701 112.218  1.00  0.00     0.026 A 
ATOM     14  C   UNL     1     117.497 157.330 111.752  1.00  0.00     0.077 C 
ATOM     15  N   UNL     1     117.840 156.345 112.508  1.00  0.00    -0.278 NA
ATOM     16  C   UNL     1     117.888 156.530 113.947  1.00  0.00     0.198 C 
ENDROOT
BRANCH  14  17
ATOM     17  C   UNL     1     117.453 157.066 110.291  1.00  0.00     0.036 A 
ATOM     18  C   UNL     1     116.276 156.582 109.708  1.00  0.00     0.013 A 
ATOM     19  C   UNL     1     118.584 157.287 109.507  1.00  0.00     0.132 A 
ATOM     20  C   UNL     1     116.242 156.329 108.335  1.00  0.00     0.001 A 
ATOM     21  C   UNL     1     118.549 157.036 108.138  1.00  0.00     0.040 A 
ATOM     22  C   UNL     1     117.376 156.556 107.552  1.00  0.00     0.003 A 
ATOM     23  F   UNL     1     119.707 157.787 110.041  1.00  0.00    -0.206 F 
ENDBRANCH  14  17
TORSDOF 1
ENDMDL
MODEL 4
REMARK VINA RESULT:    -8.889      2.963      5.302
REMARK INTER + INTRA:          -9.182
REMARK INTER:                  -8.604
REMARK INTRA:                  -0.577
REMARK UNBOUND:                 0.227
REMARK SMILES Cc1ncc2n1-c1ccc(Cl)cc1C(c1ccccc1F)=NC2
REMARK SMILES IDX 1 1 2 2 3 3 4 4 5 5 6 6 7 7 8 8 9 9 10 10 11 11 12 12 13 13
REMARK SMILES IDX 14 14 22 15 23 16 15 17 16 18 20 19 17 20 19 21 18 22 21 23
REMARK H PARENT
ROOT
ATOM      1  C   UNL     1     120.675 159.437 109.678  1.00  0.00     0.088 C 
ATOM      2  C   UNL     1     119.620 158.582 109.073  1.00  0.00     0.110 A 
ATOM      3  N   UNL     1     119.833 157.810 108.023  1.00  0.00    -0.241 NA
ATOM      4  C   UNL     1     118.701 157.067 107.869  1.00  0.00     0.137 A 
ATOM      5  C   UNL     1     117.765 157.401 108.817  1.00  0.00     0.064 A 
ATOM      6  N   UNL     1     118.337 158.397 109.582  1.00  0.00    -0.298 N 
ATOM      7  C   UNL     1     117.675 159.089 110.634  1.00  0.00     0.057 A 
ATOM      8  C   UNL     1     117.930 160.457 110.821  1.00  0.00     0.029 A 
ATOM      9  C   UNL     1     117.255 161.176 111.811  1.00  0.00     0.023 A 
ATOM     10  C   UNL     1     116.315 160.537 112.611  1.00  0.00     0.041 A 
ATOM     11  Cl  UNL     1     115.478 161.426 113.822  1.00  0.00    -0.084 Cl
ATOM     12  C   UNL     1     116.046 159.182 112.437  1.00  0.00     0.033 A 
ATOM     13  C   UNL     1     116.727 158.443 111.454  1.00  0.00     0.026 A 
ATOM     14  C   UNL     1     116.457 156.969 111.398  1.00  0.00     0.077 C 
ATOM     15  N   UNL     1     116.311 156.268 110.327  1.00  0.00    -0.278 NA
ATOM     16  C   UNL     1     116.388 156.917 109.031  1.00  0.00     0.198 C 
ENDROOT
BRANCH  14  17
ATOM     17  C   UNL     1     116.383 156.238 112.689  1.00  0.00     0.036 A 
ATOM     18  C   UNL     1     115.188 155.615 113.066  1.00  0.00     0.013 A 
ATOM     19  C   UNL     1     117.496 156.184 113.526  1.00  0.00     0.132 A 
ATOM     20  C   UNL     1     115.121 154.935 114.283  1.00  0.00     0.001 A 
ATOM     21  C   UNL     1     117.429 155.504 114.739  1.00  0.00     0.040 A 
ATOM     22  C   UNL     1     116.240 154.879 115.118  1.00  0.00     0.003 A 
ATOM     23  F   UNL     1     118.660 156.741 113.163  1.00  0.00    -0.206 F 
ENDBRANCH  14  17
TORSDOF 1
ENDMDL
MODEL 5
REMARK VINA RESULT:    -8.718      1.171      1.556
REMARK INTER + INTRA:          -9.001
REMARK INTER:                 -10.317
REMARK INTRA:                   1.316
REMARK UNBOUND:                 0.227
REMARK SMILES Cc1ncc2n1-c1ccc(Cl)cc1C(c1ccccc1F)=NC2
REMARK SMILES IDX 1 1 2 2 3 3 4 4 5 5 6 6 7 7 8 8 9 9 10 10 11 11 12 12 13 13
REMARK SMILES IDX 14 14 22 15 23 16 15 17 16 18 20 19 17 20 19 21 18 22 21 23
REMARK H PARENT
ROOT
ATOM      1  C   UNL     1     116.928 162.110 111.126  1.00  0.00     0.088 C 
ATOM      2  C   UNL     1     117.003 160.844 111.902  1.00  0.00     0.110 A 
ATOM      3  N   UNL     1     116.294 160.625 112.994  1.00  0.00    -0.241 NA
ATOM      4  C   UNL     1     116.501 159.318 113.320  1.00  0.00     0.137 A 
ATOM      5  C   UNL     1     117.371 158.727 112.435  1.00  0.00     0.064 A 
ATOM      6  N   UNL     1     117.722 159.710 111.533  1.00  0.00    -0.298 N 
ATOM      7  C   UNL     1     118.673 159.545 110.488  1.00  0.00     0.057 A 
ATOM      8  C   UNL     1     119.517 160.616 110.153  1.00  0.00     0.029 A 
ATOM      9  C   UNL     1     120.496 160.467 109.168  1.00  0.00     0.023 A 
ATOM     10  C   UNL     1     120.647 159.246 108.520  1.00  0.00     0.041 A 
ATOM     11  Cl  UNL     1     121.860 159.062 107.316  1.00  0.00    -0.084 Cl
ATOM     12  C   UNL     1     119.822 158.171 108.841  1.00  0.00     0.033 A 
ATOM     13  C   UNL     1     118.823 158.311 109.822  1.00  0.00     0.026 A 
ATOM     14  C   UNL     1     117.910 157.141 110.037  1.00  0.00     0.077 C 
ATOM     15  N   UNL     1     117.494 156.707 111.177  1.00  0.00    -0.278 NA
ATOM     16  C   UNL     1     117.932 157.364 112.395  1.00  0.00     0.198 C 
ENDROOT
BRANCH  14  17
ATOM     17  C   UNL     1     117.409 156.434 108.831  1.00  0.00     0.036 A 
ATOM     18  C   UNL     1     116.031 156.274 108.642  1.00  0.00     0.013 A 
ATOM     19  C   UNL     1     118.308 155.920 107.898  1.00  0.00     0.132 A 
ATOM     20  C   UNL     1     115.565 155.602 107.511  1.00  0.00     0.001 A 
ATOM     21  C   UNL     1     117.843 155.251 106.769  1.00  0.00     0.040 A 
ATOM     22  C   UNL     1     116.469 155.092 106.575  1.00  0.00     0.003 A 
ATOM     23  F   UNL     1     119.629 156.098 108.043  1.00  0.00    -0.206 F 
ENDBRANCH  14  17
TORSDOF 1
ENDMDL
MODEL 6
REMARK VINA RESULT:    -8.399      2.673      4.397
REMARK INTER + INTRA:          -8.663
REMARK INTER:                  -8.424
REMARK INTRA:                  -0.239
REMARK UNBOUND:                 0.227
REMARK SMILES Cc1ncc2n1-c1ccc(Cl)cc1C(c1ccccc1F)=NC2
REMARK SMILES IDX 1 1 2 2 3 3 4 4 5 5 6 6 7 7 8 8 9 9 10 10 11 11 12 12 13 13
REMARK SMILES IDX 14 14 22 15 23 16 15 17 16 18 20 19 17 20 19 21 18 22 21 23
REMARK H PARENT
ROOT
ATOM      1  C   UNL     1     112.278 159.094 114.579  1.00  0.00     0.088 C 
ATOM      2  C   UNL     1     113.439 158.399 115.196  1.00  0.00     0.110 A 
ATOM      3  N   UNL     1     113.311 157.452 116.108  1.00  0.00    -0.241 NA
ATOM      4  C   UNL     1     114.562 156.949 116.304  1.00  0.00     0.137 A 
ATOM      5  C   UNL     1     115.481 157.610 115.526  1.00  0.00     0.064 A 
ATOM      6  N   UNL     1     114.772 158.565 114.828  1.00  0.00    -0.298 N 
ATOM      7  C   UNL     1     115.353 159.530 113.959  1.00  0.00     0.057 A 
ATOM      8  C   UNL     1     114.816 160.827 113.915  1.00  0.00     0.029 A 
ATOM      9  C   UNL     1     115.398 161.810 113.112  1.00  0.00     0.023 A 
ATOM     10  C   UNL     1     116.527 161.509 112.358  1.00  0.00     0.041 A 
ATOM     11  Cl  UNL     1     117.249 162.724 111.379  1.00  0.00    -0.084 Cl
ATOM     12  C   UNL     1     117.077 160.231 112.392  1.00  0.00     0.033 A 
ATOM     13  C   UNL     1     116.493 159.227 113.186  1.00  0.00     0.026 A 
ATOM     14  C   UNL     1     117.082 157.851 113.089  1.00  0.00     0.077 C 
ATOM     15  N   UNL     1     117.285 157.045 114.074  1.00  0.00    -0.278 NA
ATOM     16  C   UNL     1     116.945 157.463 115.422  1.00  0.00     0.198 C 
ENDROOT
BRANCH  14  17
ATOM     17  C   UNL     1     117.436 157.352 111.736  1.00  0.00     0.036 A 
ATOM     18  C   UNL     1     118.598 157.815 111.107  1.00  0.00     0.013 A 
ATOM     19  C   UNL     1     116.606 156.438 111.089  1.00  0.00     0.132 A 
ATOM     20  C   UNL     1     118.923 157.348 109.833  1.00  0.00     0.001 A 
ATOM     21  C   UNL     1     116.932 155.971 109.819  1.00  0.00     0.040 A 
ATOM     22  C   UNL     1     118.092 156.427 109.190  1.00  0.00     0.003 A 
ATOM     23  F   UNL     1     115.510 155.954 111.692  1.00  0.00    -0.206 F 
ENDBRANCH  14  17
TORSDOF 1
ENDMDL
MODEL 7
REMARK VINA RESULT:    -7.375      2.958      5.924
REMARK INTER + INTRA:          -7.580
REMARK INTER:                  -7.267
REMARK INTRA:                  -0.313
REMARK UNBOUND:                 0.227
REMARK SMILES Cc1ncc2n1-c1ccc(Cl)cc1C(c1ccccc1F)=NC2
REMARK SMILES IDX 1 1 2 2 3 3 4 4 5 5 6 6 7 7 8 8 9 9 10 10 11 11 12 12 13 13
REMARK SMILES IDX 14 14 22 15 23 16 15 17 16 18 20 19 17 20 19 21 18 22 21 23
REMARK H PARENT
ROOT
ATOM      1  C   UNL     1     120.114 159.000 110.044  1.00  0.00     0.088 C 
ATOM      2  C   UNL     1     119.021 157.999 109.926  1.00  0.00     0.110 A 
ATOM      3  N   UNL     1     119.128 156.898 109.205  1.00  0.00    -0.241 NA
ATOM      4  C   UNL     1     118.010 156.165 109.473  1.00  0.00     0.137 A 
ATOM      5  C   UNL     1     117.188 156.832 110.348  1.00  0.00     0.064 A 
ATOM      6  N   UNL     1     117.817 158.028 110.625  1.00  0.00    -0.298 N 
ATOM      7  C   UNL     1     117.268 159.063 111.433  1.00  0.00     0.057 A 
ATOM      8  C   UNL     1     117.499 160.403 111.082  1.00  0.00     0.029 A 
ATOM      9  C   UNL     1     116.929 161.439 111.824  1.00  0.00     0.023 A 
ATOM     10  C   UNL     1     116.115 161.145 112.913  1.00  0.00     0.041 A 
ATOM     11  Cl  UNL     1     115.406 162.423 113.819  1.00  0.00    -0.084 Cl
ATOM     12  C   UNL     1     115.871 159.823 113.273  1.00  0.00     0.033 A 
ATOM     13  C   UNL     1     116.449 158.769 112.543  1.00  0.00     0.026 A 
ATOM     14  C   UNL     1     116.222 157.378 113.055  1.00  0.00     0.077 C 
ATOM     15  N   UNL     1     115.968 156.340 112.335  1.00  0.00    -0.278 NA
ATOM     16  C   UNL     1     115.864 156.477 110.894  1.00  0.00     0.198 C 
ENDROOT
BRANCH  14  17
ATOM     17  C   UNL     1     116.331 157.163 114.521  1.00  0.00     0.036 A 
ATOM     18  C   UNL     1     117.460 157.624 115.208  1.00  0.00     0.013 A 
ATOM     19  C   UNL     1     115.319 156.492 115.205  1.00  0.00     0.132 A 
ATOM     20  C   UNL     1     117.561 157.413 116.585  1.00  0.00     0.001 A 
ATOM     21  C   UNL     1     115.420 156.283 116.578  1.00  0.00     0.040 A 
ATOM     22  C   UNL     1     116.542 156.745 117.269  1.00  0.00     0.003 A 
ATOM     23  F   UNL     1     114.213 156.078 114.570  1.00  0.00    -0.206 F 
ENDBRANCH  14  17
TORSDOF 1
ENDMDL
MODEL 8
REMARK VINA RESULT:    -6.866      4.975      7.234
REMARK INTER + INTRA:          -7.040
REMARK INTER:                  -6.409
REMARK INTRA:                  -0.631
REMARK UNBOUND:                 0.227
REMARK SMILES Cc1ncc2n1-c1ccc(Cl)cc1C(c1ccccc1F)=NC2
REMARK SMILES IDX 1 1 2 2 3 3 4 4 5 5 6 6 7 7 8 8 9 9 10 10 11 11 12 12 13 13
REMARK SMILES IDX 14 14 22 15 23 16 15 17 16 18 20 19 17 20 19 21 18 22 21 23
REMARK H PARENT
ROOT
ATOM      1  C   UNL     1     116.056 165.074 110.817  1.00  0.00     0.088 C 
ATOM      2  C   UNL     1     116.095 165.066 112.303  1.00  0.00     0.110 A 
ATOM      3  N   UNL     1     115.993 166.161 113.034  1.00  0.00    -0.241 NA
ATOM      4  C   UNL     1     115.903 165.742 114.327  1.00  0.00     0.137 A 
ATOM      5  C   UNL     1     115.979 164.372 114.403  1.00  0.00     0.064 A 
ATOM      6  N   UNL     1     116.131 163.928 113.106  1.00  0.00    -0.298 N 
ATOM      7  C   UNL     1     116.329 162.569 112.735  1.00  0.00     0.057 A 
ATOM      8  C   UNL     1     117.189 162.268 111.666  1.00  0.00     0.029 A 
ATOM      9  C   UNL     1     117.446 160.941 111.314  1.00  0.00     0.023 A 
ATOM     10  C   UNL     1     116.856 159.907 112.033  1.00  0.00     0.041 A 
ATOM     11  Cl  UNL     1     117.182 158.274 111.603  1.00  0.00    -0.084 Cl
ATOM     12  C   UNL     1     116.005 160.186 113.098  1.00  0.00     0.033 A 
ATOM     13  C   UNL     1     115.727 161.517 113.456  1.00  0.00     0.026 A 
ATOM     14  C   UNL     1     114.721 161.735 114.546  1.00  0.00     0.077 C 
ATOM     15  N   UNL     1     114.810 162.605 115.493  1.00  0.00    -0.278 NA
ATOM     16  C   UNL     1     115.976 163.466 115.566  1.00  0.00     0.198 C 
ENDROOT
BRANCH  14  17
ATOM     17  C   UNL     1     113.493 160.900 114.522  1.00  0.00     0.036 A 
ATOM     18  C   UNL     1     112.459 161.212 113.632  1.00  0.00     0.013 A 
ATOM     19  C   UNL     1     113.367 159.818 115.392  1.00  0.00     0.132 A 
ATOM     20  C   UNL     1     111.304 160.427 113.618  1.00  0.00     0.001 A 
ATOM     21  C   UNL     1     112.216 159.035 115.375  1.00  0.00     0.040 A 
ATOM     22  C   UNL     1     111.183 159.340 114.487  1.00  0.00     0.003 A 
ATOM     23  F   UNL     1     114.364 159.481 116.223  1.00  0.00    -0.206 F 
ENDBRANCH  14  17
TORSDOF 1
ENDMDL
MODEL 9
REMARK VINA RESULT:    -6.776      4.407      7.527
REMARK INTER + INTRA:          -6.945
REMARK INTER:                  -6.601
REMARK INTRA:                  -0.344
REMARK UNBOUND:                 0.227
REMARK SMILES Cc1ncc2n1-c1ccc(Cl)cc1C(c1ccccc1F)=NC2
REMARK SMILES IDX 1 1 2 2 3 3 4 4 5 5 6 6 7 7 8 8 9 9 10 10 11 11 12 12 13 13
REMARK SMILES IDX 14 14 22 15 23 16 15 17 16 18 20 19 17 20 19 21 18 22 21 23
REMARK H PARENT
ROOT
ATOM      1  C   UNL     1     116.092 156.564 116.223  1.00  0.00     0.088 C 
ATOM      2  C   UNL     1     114.809 157.236 115.888  1.00  0.00     0.110 A 
ATOM      3  N   UNL     1     113.683 157.003 116.538  1.00  0.00    -0.241 NA
ATOM      4  C   UNL     1     112.783 157.911 116.064  1.00  0.00     0.137 A 
ATOM      5  C   UNL     1     113.350 158.696 115.090  1.00  0.00     0.064 A 
ATOM      6  N   UNL     1     114.647 158.251 114.949  1.00  0.00    -0.298 N 
ATOM      7  C   UNL     1     115.570 158.741 113.982  1.00  0.00     0.057 A 
ATOM      8  C   UNL     1     116.469 157.848 113.378  1.00  0.00     0.029 A 
ATOM      9  C   UNL     1     117.350 158.289 112.388  1.00  0.00     0.023 A 
ATOM     10  C   UNL     1     117.329 159.620 111.986  1.00  0.00     0.041 A 
ATOM     11  Cl  UNL     1     118.407 160.158 110.759  1.00  0.00    -0.084 Cl
ATOM     12  C   UNL     1     116.442 160.520 112.571  1.00  0.00     0.033 A 
ATOM     13  C   UNL     1     115.559 160.092 113.579  1.00  0.00     0.026 A 
ATOM     14  C   UNL     1     114.707 161.141 114.229  1.00  0.00     0.077 C 
ATOM     15  N   UNL     1     113.465 161.014 114.548  1.00  0.00    -0.278 NA
ATOM     16  C   UNL     1     112.775 159.771 114.258  1.00  0.00     0.198 C 
ENDROOT
BRANCH  14  17
ATOM     17  C   UNL     1     115.354 162.433 114.571  1.00  0.00     0.036 A 
ATOM     18  C   UNL     1     115.506 163.415 113.585  1.00  0.00     0.013 A 
ATOM     19  C   UNL     1     115.821 162.660 115.864  1.00  0.00     0.132 A 
ATOM     20  C   UNL     1     116.121 164.626 113.909  1.00  0.00     0.001 A 
ATOM     21  C   UNL     1     116.433 163.868 116.187  1.00  0.00     0.040 A 
ATOM     22  C   UNL     1     116.583 164.852 115.208  1.00  0.00     0.003 A 
ATOM     23  F   UNL     1     115.650 161.747 116.831  1.00  0.00    -0.206 F 
ENDBRANCH  14  17
TORSDOF 1
ENDMDL
