MODEL 1
REMARK VINA RESULT:    -6.879      0.000      0.000
REMARK INTER + INTRA:          -8.370
REMARK INTER:                  -7.683
REMARK INTRA:                  -0.686
REMARK UNBOUND:                -0.686
REMARK SMILES O=C1CN=C(c2ccccc2Cl)c2cc([N+](=O)[O-])ccc2N1
REMARK SMILES IDX 1 1 2 2 3 3 4 4 5 5 13 6 14 7 15 8 19 9 20 10 21 11 22 12
REMARK SMILES IDX 6 14 7 15 11 16 8 17 10 18 9 19 12 20 16 21 17 22 18 23
REMARK H PARENT 22 13
ROOT
ATOM      1  O   UNL     1     138.101 101.302 134.066  1.00  0.00    -0.273 OA
ATOM      2  C   UNL     1     139.054 100.523 134.027  1.00  0.00     0.246 C 
ATOM      3  C   UNL     1     140.047 100.494 132.883  1.00  0.00     0.243 C 
ATOM      4  N   UNL     1     139.991  99.215 132.192  1.00  0.00    -0.274 NA
ATOM      5  C   UNL     1     140.417  98.154 132.783  1.00  0.00     0.076 C 
ATOM      6  C   UNL     1     140.920  98.062 134.189  1.00  0.00     0.031 A 
ATOM      7  C   UNL     1     141.956  97.149 134.462  1.00  0.00     0.098 A 
ATOM      8  C   UNL     1     142.340  96.896 135.785  1.00  0.00     0.270 A 
ATOM      9  C   UNL     1     141.693  97.534 136.845  1.00  0.00     0.088 A 
ATOM     10  C   UNL     1     140.674  98.450 136.573  1.00  0.00     0.034 A 
ATOM     11  C   UNL     1     140.304  98.749 135.252  1.00  0.00     0.051 A 
ATOM     12  N   UNL     1     139.304  99.723 135.109  1.00  0.00    -0.324 N 
ATOM     13  H   UNL     1     138.719  99.952 135.904  1.00  0.00     0.170 HD
ENDROOT
BRANCH   5  14
ATOM     14  C   UNL     1     140.339  96.896 131.997  1.00  0.00     0.019 A 
ATOM     15  C   UNL     1     141.252  96.723 130.947  1.00  0.00     0.012 A 
ATOM     16  C   UNL     1     139.406  95.897 132.295  1.00  0.00     0.050 A 
ATOM     17  C   UNL     1     141.222  95.553 130.190  1.00  0.00     0.001 A 
ATOM     18  C   UNL     1     139.383  94.729 131.531  1.00  0.00     0.021 A 
ATOM     19  C   UNL     1     140.288  94.558 130.480  1.00  0.00     0.002 A 
ATOM     20  Cl  UNL     1     138.231  96.076 133.547  1.00  0.00    -0.084 Cl
ENDBRANCH   5  14
BRANCH   8  21
ATOM     21  N   UNL     1     143.416  95.934 136.061  1.00  0.00     0.062 N 
ATOM     22  O   UNL     1     143.116  94.732 136.099  1.00  0.00    -0.258 OA
ATOM     23  O   UNL     1     144.557  96.382 136.234  1.00  0.00    -0.258 OA
ENDBRANCH   8  21
TORSDOF 2
ENDMDL
MODEL 2
REMARK VINA RESULT:    -6.840      4.170      7.954
REMARK INTER + INTRA:          -8.326
REMARK INTER:                  -7.687
REMARK INTRA:                  -0.638
REMARK UNBOUND:                -0.686
REMARK SMILES O=C1CN=C(c2ccccc2Cl)c2cc([N+](=O)[O-])ccc2N1
REMARK SMILES IDX 1 1 2 2 3 3 4 4 5 5 13 6 14 7 15 8 19 9 20 10 21 11 22 12
REMARK SMILES IDX 6 14 7 15 11 16 8 17 10 18 9 19 12 20 16 21 17 22 18 23
REMARK H PARENT 22 13
ROOT
ATOM      1  O   UNL     1     146.513  93.017 135.868  1.00  0.00    -0.273 OA
ATOM      2  C   UNL     1     145.861  94.006 136.206  1.00  0.00     0.246 C 
ATOM      3  C   UNL     1     146.407  95.074 137.131  1.00  0.00     0.243 C 
ATOM      4  N   UNL     1     145.634  95.125 138.362  1.00  0.00    -0.274 NA
ATOM      5  C   UNL     1     144.423  95.559 138.335  1.00  0.00     0.076 C 
ATOM      6  C   UNL     1     143.655  95.971 137.119  1.00  0.00     0.031 A 
ATOM      7  C   UNL     1     142.733  97.027 137.244  1.00  0.00     0.098 A 
ATOM      8  C   UNL     1     141.864  97.333 136.190  1.00  0.00     0.270 A 
ATOM      9  C   UNL     1     141.892  96.585 135.010  1.00  0.00     0.088 A 
ATOM     10  C   UNL     1     142.815  95.546 134.880  1.00  0.00     0.034 A 
ATOM     11  C   UNL     1     143.724  95.252 135.911  1.00  0.00     0.051 A 
ATOM     12  N   UNL     1     144.634  94.220 135.638  1.00  0.00    -0.324 N 
ATOM     13  H   UNL     1     144.437  93.572 134.885  1.00  0.00     0.170 HD
ENDROOT
BRANCH   5  14
ATOM     14  C   UNL     1     143.715  95.595 139.641  1.00  0.00     0.019 A 
ATOM     15  C   UNL     1     142.692  94.661 139.855  1.00  0.00     0.012 A 
ATOM     16  C   UNL     1     144.060  96.510 140.641  1.00  0.00     0.050 A 
ATOM     17  C   UNL     1     142.008  94.651 141.070  1.00  0.00     0.001 A 
ATOM     18  C   UNL     1     143.369  96.493 141.854  1.00  0.00     0.021 A 
ATOM     19  C   UNL     1     142.344  95.567 142.068  1.00  0.00     0.002 A 
ATOM     20  Cl  UNL     1     145.280  97.709 140.414  1.00  0.00    -0.084 Cl
ENDBRANCH   5  14
BRANCH   8  21
ATOM     21  N   UNL     1     140.899  98.431 136.334  1.00  0.00     0.062 N 
ATOM     22  O   UNL     1     140.550  98.743 137.481  1.00  0.00    -0.258 OA
ATOM     23  O   UNL     1     140.498  98.982 135.300  1.00  0.00    -0.258 OA
ENDBRANCH   8  21
TORSDOF 2
ENDMDL
MODEL 3
REMARK VINA RESULT:    -6.719      3.724      5.715
REMARK INTER + INTRA:          -8.191
REMARK INTER:                  -7.487
REMARK INTRA:                  -0.704
REMARK UNBOUND:                -0.686
REMARK SMILES O=C1CN=C(c2ccccc2Cl)c2cc([N+](=O)[O-])ccc2N1
REMARK SMILES IDX 1 1 2 2 3 3 4 4 5 5 13 6 14 7 15 8 19 9 20 10 21 11 22 12
REMARK SMILES IDX 6 14 7 15 11 16 8 17 10 18 9 19 12 20 16 21 17 22 18 23
REMARK H PARENT 22 13
ROOT
ATOM      1  O   UNL     1     146.592  94.329 134.137  1.00  0.00    -0.273 OA
ATOM      2  C   UNL     1     145.579  94.458 134.824  1.00  0.00     0.246 C 
ATOM      3  C   UNL     1     144.266  93.780 134.490  1.00  0.00     0.243 C 
ATOM      4  N   UNL     1     143.239  94.769 134.202  1.00  0.00    -0.274 NA
ATOM      5  C   UNL     1     142.786  95.509 135.153  1.00  0.00     0.076 C 
ATOM      6  C   UNL     1     143.260  95.522 136.572  1.00  0.00     0.031 A 
ATOM      7  C   UNL     1     142.312  95.764 137.584  1.00  0.00     0.098 A 
ATOM      8  C   UNL     1     142.729  95.964 138.906  1.00  0.00     0.270 A 
ATOM      9  C   UNL     1     144.087  95.939 139.232  1.00  0.00     0.088 A 
ATOM     10  C   UNL     1     145.026  95.685 138.229  1.00  0.00     0.034 A 
ATOM     11  C   UNL     1     144.625  95.441 136.906  1.00  0.00     0.051 A 
ATOM     12  N   UNL     1     145.658  95.148 136.004  1.00  0.00    -0.324 N 
ATOM     13  H   UNL     1     146.611  95.390 136.248  1.00  0.00     0.170 HD
ENDROOT
BRANCH   5  14
ATOM     14  C   UNL     1     141.726  96.480 134.773  1.00  0.00     0.019 A 
ATOM     15  C   UNL     1     140.429  95.987 134.572  1.00  0.00     0.012 A 
ATOM     16  C   UNL     1     141.994  97.846 134.637  1.00  0.00     0.050 A 
ATOM     17  C   UNL     1     139.403  96.863 134.225  1.00  0.00     0.001 A 
ATOM     18  C   UNL     1     140.959  98.716 134.287  1.00  0.00     0.021 A 
ATOM     19  C   UNL     1     139.667  98.226 134.081  1.00  0.00     0.002 A 
ATOM     20  Cl  UNL     1     143.580  98.499 134.828  1.00  0.00    -0.084 Cl
ENDBRANCH   5  14
BRANCH   8  21
ATOM     21  N   UNL     1     141.733  96.225 139.954  1.00  0.00     0.062 N 
ATOM     22  O   UNL     1     140.727  96.877 139.641  1.00  0.00    -0.258 OA
ATOM     23  O   UNL     1     141.958  95.774 141.084  1.00  0.00    -0.258 OA
ENDBRANCH   8  21
TORSDOF 2
ENDMDL
MODEL 4
REMARK VINA RESULT:    -6.610      2.880      4.684
REMARK INTER + INTRA:          -8.069
REMARK INTER:                  -7.379
REMARK INTRA:                  -0.691
REMARK UNBOUND:                -0.686
REMARK SMILES O=C1CN=C(c2ccccc2Cl)c2cc([N+](=O)[O-])ccc2N1
REMARK SMILES IDX 1 1 2 2 3 3 4 4 5 5 13 6 14 7 15 8 19 9 20 10 21 11 22 12
REMARK SMILES IDX 6 14 7 15 11 16 8 17 10 18 9 19 12 20 16 21 17 22 18 23
REMARK H PARENT 22 13
ROOT
ATOM      1  O   UNL     1     145.803  95.411 133.141  1.00  0.00    -0.273 OA
ATOM      2  C   UNL     1     144.763  95.514 133.792  1.00  0.00     0.246 C 
ATOM      3  C   UNL     1     143.455  94.884 133.358  1.00  0.00     0.243 C 
ATOM      4  N   UNL     1     142.458  95.910 133.093  1.00  0.00    -0.274 NA
ATOM      5  C   UNL     1     141.975  96.595 134.070  1.00  0.00     0.076 C 
ATOM      6  C   UNL     1     142.387  96.506 135.505  1.00  0.00     0.031 A 
ATOM      7  C   UNL     1     141.400  96.700 136.490  1.00  0.00     0.098 A 
ATOM      8  C   UNL     1     141.761  96.804 137.838  1.00  0.00     0.270 A 
ATOM      9  C   UNL     1     143.103  96.732 138.220  1.00  0.00     0.088 A 
ATOM     10  C   UNL     1     144.081  96.526 137.244  1.00  0.00     0.034 A 
ATOM     11  C   UNL     1     143.734  96.376 135.891  1.00  0.00     0.051 A 
ATOM     12  N   UNL     1     144.802  96.124 135.017  1.00  0.00    -0.324 N 
ATOM     13  H   UNL     1     145.747  96.330 135.317  1.00  0.00     0.170 HD
ENDROOT
BRANCH   5  14
ATOM     14  C   UNL     1     140.950  97.608 133.710  1.00  0.00     0.019 A 
ATOM     15  C   UNL     1     141.382  98.920 133.471  1.00  0.00     0.012 A 
ATOM     16  C   UNL     1     139.596  97.275 133.588  1.00  0.00     0.050 A 
ATOM     17  C   UNL     1     140.455  99.900 133.120  1.00  0.00     0.001 A 
ATOM     18  C   UNL     1     138.675  98.264 133.237  1.00  0.00     0.021 A 
ATOM     19  C   UNL     1     139.103  99.574 133.005  1.00  0.00     0.002 A 
ATOM     20  Cl  UNL     1     139.003  95.687 133.915  1.00  0.00    -0.084 Cl
ENDBRANCH   5  14
BRANCH   8  21
ATOM     21  N   UNL     1     140.725  97.016 138.859  1.00  0.00     0.062 N 
ATOM     22  O   UNL     1     139.690  97.602 138.513  1.00  0.00    -0.258 OA
ATOM     23  O   UNL     1     140.947  96.590 139.999  1.00  0.00    -0.258 OA
ENDBRANCH   8  21
TORSDOF 2
ENDMDL
MODEL 5
REMARK VINA RESULT:    -6.586      3.497      4.660
REMARK INTER + INTRA:          -8.042
REMARK INTER:                  -7.463
REMARK INTRA:                  -0.579
REMARK UNBOUND:                -0.686
REMARK SMILES O=C1CN=C(c2ccccc2Cl)c2cc([N+](=O)[O-])ccc2N1
REMARK SMILES IDX 1 1 2 2 3 3 4 4 5 5 13 6 14 7 15 8 19 9 20 10 21 11 22 12
REMARK SMILES IDX 6 14 7 15 11 16 8 17 10 18 9 19 12 20 16 21 17 22 18 23
REMARK H PARENT 22 13
ROOT
ATOM      1  O   UNL     1     141.642  99.416 133.464  1.00  0.00    -0.273 OA
ATOM      2  C   UNL     1     142.180  98.824 134.400  1.00  0.00     0.246 C 
ATOM      3  C   UNL     1     143.682  98.767 134.583  1.00  0.00     0.243 C 
ATOM      4  N   UNL     1     144.157  97.395 134.479  1.00  0.00    -0.274 NA
ATOM      5  C   UNL     1     143.863  96.549 135.403  1.00  0.00     0.076 C 
ATOM      6  C   UNL     1     142.993  96.800 136.593  1.00  0.00     0.031 A 
ATOM      7  C   UNL     1     143.314  96.148 137.799  1.00  0.00     0.098 A 
ATOM      8  C   UNL     1     142.436  96.207 138.887  1.00  0.00     0.270 A 
ATOM      9  C   UNL     1     141.227  96.900 138.785  1.00  0.00     0.088 A 
ATOM     10  C   UNL     1     140.914  97.558 137.594  1.00  0.00     0.034 A 
ATOM     11  C   UNL     1     141.802  97.546 136.506  1.00  0.00     0.051 A 
ATOM     12  N   UNL     1     141.396  98.286 135.386  1.00  0.00    -0.324 N 
ATOM     13  H   UNL     1     140.421  98.547 135.291  1.00  0.00     0.170 HD
ENDROOT
BRANCH   5  14
ATOM     14  C   UNL     1     144.405  95.176 135.224  1.00  0.00     0.019 A 
ATOM     15  C   UNL     1     145.649  94.884 135.800  1.00  0.00     0.012 A 
ATOM     16  C   UNL     1     143.698  94.191 134.526  1.00  0.00     0.050 A 
ATOM     17  C   UNL     1     146.190  93.606 135.666  1.00  0.00     0.001 A 
ATOM     18  C   UNL     1     144.248  92.914 134.396  1.00  0.00     0.021 A 
ATOM     19  C   UNL     1     145.492  92.623 134.964  1.00  0.00     0.002 A 
ATOM     20  Cl  UNL     1     142.185  94.509 133.760  1.00  0.00    -0.084 Cl
ENDBRANCH   5  14
BRANCH   8  21
ATOM     21  N   UNL     1     142.776  95.515 140.138  1.00  0.00     0.062 N 
ATOM     22  O   UNL     1     143.550  94.550 140.069  1.00  0.00    -0.258 OA
ATOM     23  O   UNL     1     142.273  95.943 141.185  1.00  0.00    -0.258 OA
ENDBRANCH   8  21
TORSDOF 2
ENDMDL
MODEL 6
REMARK VINA RESULT:    -6.498      2.141      2.451
REMARK INTER + INTRA:          -7.944
REMARK INTER:                  -7.231
REMARK INTRA:                  -0.713
REMARK UNBOUND:                -0.686
REMARK SMILES O=C1CN=C(c2ccccc2Cl)c2cc([N+](=O)[O-])ccc2N1
REMARK SMILES IDX 1 1 2 2 3 3 4 4 5 5 13 6 14 7 15 8 19 9 20 10 21 11 22 12
REMARK SMILES IDX 6 14 7 15 11 16 8 17 10 18 9 19 12 20 16 21 17 22 18 23
REMARK H PARENT 22 13
ROOT
ATOM      1  O   UNL     1     138.504 100.133 133.593  1.00  0.00    -0.273 OA
ATOM      2  C   UNL     1     139.571  99.598 133.896  1.00  0.00     0.246 C 
ATOM      3  C   UNL     1     140.803  99.663 133.017  1.00  0.00     0.243 C 
ATOM      4  N   UNL     1     141.175  98.333 132.559  1.00  0.00    -0.274 NA
ATOM      5  C   UNL     1     141.640  97.479 133.402  1.00  0.00     0.076 C 
ATOM      6  C   UNL     1     141.786  97.675 134.878  1.00  0.00     0.031 A 
ATOM      7  C   UNL     1     142.880  97.067 135.522  1.00  0.00     0.098 A 
ATOM      8  C   UNL     1     142.965  97.070 136.919  1.00  0.00     0.270 A 
ATOM      9  C   UNL     1     141.961  97.663 137.689  1.00  0.00     0.088 A 
ATOM     10  C   UNL     1     140.882  98.278 137.049  1.00  0.00     0.034 A 
ATOM     11  C   UNL     1     140.801  98.322 135.648  1.00  0.00     0.051 A 
ATOM     12  N   UNL     1     139.696  99.013 135.128  1.00  0.00    -0.324 N 
ATOM     13  H   UNL     1     138.899  99.193 135.725  1.00  0.00     0.170 HD
ENDROOT
BRANCH   5  14
ATOM     14  C   UNL     1     142.011  96.151 132.845  1.00  0.00     0.019 A 
ATOM     15  C   UNL     1     141.078  95.112 132.956  1.00  0.00     0.012 A 
ATOM     16  C   UNL     1     143.239  95.937 132.209  1.00  0.00     0.050 A 
ATOM     17  C   UNL     1     141.380  93.853 132.438  1.00  0.00     0.001 A 
ATOM     18  C   UNL     1     143.533  94.673 131.694  1.00  0.00     0.021 A 
ATOM     19  C   UNL     1     142.606  93.633 131.810  1.00  0.00     0.002 A 
ATOM     20  Cl  UNL     1     144.442  97.169 132.085  1.00  0.00    -0.084 Cl
ENDBRANCH   5  14
BRANCH   8  21
ATOM     21  N   UNL     1     144.106  96.425 137.583  1.00  0.00     0.062 N 
ATOM     22  O   UNL     1     144.979  95.921 136.863  1.00  0.00    -0.258 OA
ATOM     23  O   UNL     1     144.127  96.429 138.821  1.00  0.00    -0.258 OA
ENDBRANCH   8  21
TORSDOF 2
ENDMDL
MODEL 7
REMARK VINA RESULT:    -6.497      3.179      4.941
REMARK INTER + INTRA:          -7.943
REMARK INTER:                  -7.232
REMARK INTRA:                  -0.711
REMARK UNBOUND:                -0.686
REMARK SMILES O=C1CN=C(c2ccccc2Cl)c2cc([N+](=O)[O-])ccc2N1
REMARK SMILES IDX 1 1 2 2 3 3 4 4 5 5 13 6 14 7 15 8 19 9 20 10 21 11 22 12
REMARK SMILES IDX 6 14 7 15 11 16 8 17 10 18 9 19 12 20 16 21 17 22 18 23
REMARK H PARENT 22 13
ROOT
ATOM      1  O   UNL     1     142.301  95.131 139.497  1.00  0.00    -0.273 OA
ATOM      2  C   UNL     1     142.574  95.735 138.459  1.00  0.00     0.246 C 
ATOM      3  C   UNL     1     142.401  97.232 138.308  1.00  0.00     0.243 C 
ATOM      4  N   UNL     1     141.409  97.530 137.285  1.00  0.00    -0.274 NA
ATOM      5  C   UNL     1     141.677  97.287 136.050  1.00  0.00     0.076 C 
ATOM      6  C   UNL     1     142.918  96.640 135.521  1.00  0.00     0.031 A 
ATOM      7  C   UNL     1     143.405  97.065 134.271  1.00  0.00     0.098 A 
ATOM      8  C   UNL     1     144.453  96.374 133.652  1.00  0.00     0.270 A 
ATOM      9  C   UNL     1     145.016  95.249 134.258  1.00  0.00     0.088 A 
ATOM     10  C   UNL     1     144.541  94.834 135.505  1.00  0.00     0.034 A 
ATOM     11  C   UNL     1     143.520  95.540 136.162  1.00  0.00     0.051 A 
ATOM     12  N   UNL     1     143.168  95.054 137.429  1.00  0.00    -0.324 N 
ATOM     13  H   UNL     1     143.433  94.112 137.690  1.00  0.00     0.170 HD
ENDROOT
BRANCH   5  14
ATOM     14  C   UNL     1     140.615  97.639 135.072  1.00  0.00     0.019 A 
ATOM     15  C   UNL     1     140.447  98.992 134.747  1.00  0.00     0.012 A 
ATOM     16  C   UNL     1     139.814  96.661 134.471  1.00  0.00     0.050 A 
ATOM     17  C   UNL     1     139.469  99.366 133.827  1.00  0.00     0.001 A 
ATOM     18  C   UNL     1     138.837  97.045 133.551  1.00  0.00     0.021 A 
ATOM     19  C   UNL     1     138.664  98.395 133.230  1.00  0.00     0.002 A 
ATOM     20  Cl  UNL     1     139.948  94.987 134.868  1.00  0.00    -0.084 Cl
ENDBRANCH   5  14
BRANCH   8  21
ATOM     21  N   UNL     1     144.949  96.820 132.342  1.00  0.00     0.062 N 
ATOM     22  O   UNL     1     145.719  96.065 131.732  1.00  0.00    -0.258 OA
ATOM     23  O   UNL     1     144.563  97.920 131.927  1.00  0.00    -0.258 OA
ENDBRANCH   8  21
TORSDOF 2
ENDMDL
MODEL 8
REMARK VINA RESULT:    -6.402      2.892      4.957
REMARK INTER + INTRA:          -7.836
REMARK INTER:                  -7.149
REMARK INTRA:                  -0.687
REMARK UNBOUND:                -0.686
REMARK SMILES O=C1CN=C(c2ccccc2Cl)c2cc([N+](=O)[O-])ccc2N1
REMARK SMILES IDX 1 1 2 2 3 3 4 4 5 5 13 6 14 7 15 8 19 9 20 10 21 11 22 12
REMARK SMILES IDX 6 14 7 15 11 16 8 17 10 18 9 19 12 20 16 21 17 22 18 23
REMARK H PARENT 22 13
ROOT
ATOM      1  O   UNL     1     140.592  97.328 137.981  1.00  0.00    -0.273 OA
ATOM      2  C   UNL     1     140.522  97.326 136.752  1.00  0.00     0.246 C 
ATOM      3  C   UNL     1     140.367  96.057 135.939  1.00  0.00     0.243 C 
ATOM      4  N   UNL     1     141.527  95.854 135.085  1.00  0.00    -0.274 NA
ATOM      5  C   UNL     1     141.728  96.643 134.089  1.00  0.00     0.076 C 
ATOM      6  C   UNL     1     140.914  97.845 133.728  1.00  0.00     0.031 A 
ATOM      7  C   UNL     1     140.757  98.154 132.364  1.00  0.00     0.098 A 
ATOM      8  C   UNL     1     140.158  99.359 131.979  1.00  0.00     0.270 A 
ATOM      9  C   UNL     1     139.723 100.274 132.942  1.00  0.00     0.088 A 
ATOM     10  C   UNL     1     139.866  99.961 134.296  1.00  0.00     0.034 A 
ATOM     11  C   UNL     1     140.426  98.738 134.701  1.00  0.00     0.051 A 
ATOM     12  N   UNL     1     140.467  98.521 136.086  1.00  0.00    -0.324 N 
ATOM     13  H   UNL     1     140.370  99.310 136.714  1.00  0.00     0.170 HD
ENDROOT
BRANCH   5  14
ATOM     14  C   UNL     1     142.927  96.351 133.259  1.00  0.00     0.019 A 
ATOM     15  C   UNL     1     142.886  95.225 132.425  1.00  0.00     0.012 A 
ATOM     16  C   UNL     1     144.057  97.175 133.282  1.00  0.00     0.050 A 
ATOM     17  C   UNL     1     143.983  94.920 131.621  1.00  0.00     0.001 A 
ATOM     18  C   UNL     1     145.152  96.860 132.475  1.00  0.00     0.021 A 
ATOM     19  C   UNL     1     145.116  95.734 131.647  1.00  0.00     0.002 A 
ATOM     20  Cl  UNL     1     144.179  98.546 134.323  1.00  0.00    -0.084 Cl
ENDBRANCH   5  14
BRANCH   8  21
ATOM     21  N   UNL     1     140.008  99.678 130.553  1.00  0.00     0.062 N 
ATOM     22  O   UNL     1     139.187  99.017 129.900  1.00  0.00    -0.258 OA
ATOM     23  O   UNL     1     140.705 100.590 130.092  1.00  0.00    -0.258 OA
ENDBRANCH   8  21
TORSDOF 2
ENDMDL
MODEL 9
REMARK VINA RESULT:    -6.222      2.951      4.023
REMARK INTER + INTRA:          -7.636
REMARK INTER:                  -6.930
REMARK INTRA:                  -0.705
REMARK UNBOUND:                -0.686
REMARK SMILES O=C1CN=C(c2ccccc2Cl)c2cc([N+](=O)[O-])ccc2N1
REMARK SMILES IDX 1 1 2 2 3 3 4 4 5 5 13 6 14 7 15 8 19 9 20 10 21 11 22 12
REMARK SMILES IDX 6 14 7 15 11 16 8 17 10 18 9 19 12 20 16 21 17 22 18 23
REMARK H PARENT 22 13
ROOT
ATOM      1  O   UNL     1     140.817  96.794 139.201  1.00  0.00    -0.273 OA
ATOM      2  C   UNL     1     141.218  97.133 138.088  1.00  0.00     0.246 C 
ATOM      3  C   UNL     1     140.779  98.414 137.410  1.00  0.00     0.243 C 
ATOM      4  N   UNL     1     140.050  98.119 136.185  1.00  0.00    -0.274 NA
ATOM      5  C   UNL     1     140.677  97.625 135.176  1.00  0.00     0.076 C 
ATOM      6  C   UNL     1     142.120  97.233 135.131  1.00  0.00     0.031 A 
ATOM      7  C   UNL     1     142.817  97.410 133.921  1.00  0.00     0.098 A 
ATOM      8  C   UNL     1     144.111  96.898 133.772  1.00  0.00     0.270 A 
ATOM      9  C   UNL     1     144.719  96.195 134.815  1.00  0.00     0.088 A 
ATOM     10  C   UNL     1     144.033  96.032 136.021  1.00  0.00     0.034 A 
ATOM     11  C   UNL     1     142.751  96.575 136.204  1.00  0.00     0.051 A 
ATOM     12  N   UNL     1     142.190  96.387 137.475  1.00  0.00    -0.324 N 
ATOM     13  H   UNL     1     142.569  95.671 138.083  1.00  0.00     0.170 HD
ENDROOT
BRANCH   5  14
ATOM     14  C   UNL     1     139.858  97.372 133.962  1.00  0.00     0.019 A 
ATOM     15  C   UNL     1     139.340  96.083 133.779  1.00  0.00     0.012 A 
ATOM     16  C   UNL     1     139.586  98.383 133.033  1.00  0.00     0.050 A 
ATOM     17  C   UNL     1     138.557  95.805 132.660  1.00  0.00     0.001 A 
ATOM     18  C   UNL     1     138.802  98.095 131.914  1.00  0.00     0.021 A 
ATOM     19  C   UNL     1     138.290  96.808 131.727  1.00  0.00     0.002 A 
ATOM     20  Cl  UNL     1     140.236  99.975 133.185  1.00  0.00    -0.084 Cl
ENDBRANCH   5  14
BRANCH   8  21
ATOM     21  N   UNL     1     144.827  97.079 132.502  1.00  0.00     0.062 N 
ATOM     22  O   UNL     1     145.610  96.185 132.151  1.00  0.00    -0.258 OA
ATOM     23  O   UNL     1     144.600  98.111 131.857  1.00  0.00    -0.258 OA
ENDBRANCH   8  21
TORSDOF 2
ENDMDL
