MODEL 1
REMARK VINA RESULT:   -10.153      0.000      0.000
REMARK INTER + INTRA:         -10.463
REMARK INTER:                 -10.746
REMARK INTRA:                   0.284
REMARK UNBOUND:                 0.284
REMARK SMILES CN1C(=O)CN=C(c2ccccc2)c2cc(Cl)ccc21
REMARK SMILES IDX 1 1 2 2 3 3 4 4 5 5 6 6 7 7 14 8 15 9 16 10 17 11 18 12
REMARK SMILES IDX 19 13 20 14 8 15 9 16 13 17 10 18 12 19 11 20
REMARK H PARENT
ROOT
ATOM      1  C   UNL     1     117.016 160.826 111.777  1.00  0.00     0.153 C 
ATOM      2  N   UNL     1     117.696 159.563 111.524  1.00  0.00    -0.313 N 
ATOM      3  C   UNL     1     117.388 158.497 112.379  1.00  0.00     0.248 C 
ATOM      4  O   UNL     1     116.532 158.587 113.264  1.00  0.00    -0.272 OA
ATOM      5  C   UNL     1     118.222 157.232 112.237  1.00  0.00     0.243 C 
ATOM      6  N   UNL     1     117.840 156.545 111.008  1.00  0.00    -0.274 NA
ATOM      7  C   UNL     1     118.173 157.087 109.885  1.00  0.00     0.075 C 
ATOM      8  C   UNL     1     118.984 158.335 109.764  1.00  0.00     0.026 A 
ATOM      9  C   UNL     1     120.036 158.321 108.828  1.00  0.00     0.033 A 
ATOM     10  C   UNL     1     120.761 159.479 108.574  1.00  0.00     0.041 A 
ATOM     11  Cl  UNL     1     122.032 159.459 107.417  1.00  0.00    -0.084 Cl
ATOM     12  C   UNL     1     120.453 160.655 109.245  1.00  0.00     0.023 A 
ATOM     13  C   UNL     1     119.427 160.665 110.195  1.00  0.00     0.028 A 
ATOM     14  C   UNL     1     118.691 159.503 110.497  1.00  0.00     0.053 A 
ENDROOT
BRANCH   7  15
ATOM     15  C   UNL     1     117.715 156.402 108.632  1.00  0.00     0.000 A 
ATOM     16  C   UNL     1     116.427 155.855 108.590  1.00  0.00     0.010 A 
ATOM     17  C   UNL     1     118.537 156.329 107.501  1.00  0.00     0.010 A 
ATOM     18  C   UNL     1     115.976 155.212 107.436  1.00  0.00     0.001 A 
ATOM     19  C   UNL     1     118.082 155.686 106.349  1.00  0.00     0.001 A 
ATOM     20  C   UNL     1     116.806 155.124 106.318  1.00  0.00     0.000 A 
ENDBRANCH   7  15
TORSDOF 1
ENDMDL
MODEL 2
REMARK VINA RESULT:    -9.442      2.987      5.957
REMARK INTER + INTRA:          -9.710
REMARK INTER:                  -9.964
REMARK INTRA:                   0.254
REMARK UNBOUND:                 0.284
REMARK SMILES CN1C(=O)CN=C(c2ccccc2)c2cc(Cl)ccc21
REMARK SMILES IDX 1 1 2 2 3 3 4 4 5 5 6 6 7 7 14 8 15 9 16 10 17 11 18 12
REMARK SMILES IDX 19 13 20 14 8 15 9 16 13 17 10 18 12 19 11 20
REMARK H PARENT
ROOT
ATOM      1  C   UNL     1     117.792 157.060 106.761  1.00  0.00     0.153 C 
ATOM      2  N   UNL     1     118.516 157.621 107.894  1.00  0.00    -0.313 N 
ATOM      3  C   UNL     1     119.519 158.554 107.604  1.00  0.00     0.248 C 
ATOM      4  O   UNL     1     119.744 158.945 106.455  1.00  0.00    -0.272 OA
ATOM      5  C   UNL     1     120.398 159.008 108.760  1.00  0.00     0.243 C 
ATOM      6  N   UNL     1     119.626 159.893 109.626  1.00  0.00    -0.274 NA
ATOM      7  C   UNL     1     118.682 159.371 110.335  1.00  0.00     0.075 C 
ATOM      8  C   UNL     1     118.375 157.910 110.376  1.00  0.00     0.026 A 
ATOM      9  C   UNL     1     118.166 157.341 111.648  1.00  0.00     0.033 A 
ATOM     10  C   UNL     1     117.763 156.017 111.762  1.00  0.00     0.041 A 
ATOM     11  Cl  UNL     1     117.493 155.333 113.316  1.00  0.00    -0.084 Cl
ATOM     12  C   UNL     1     117.565 155.247 110.624  1.00  0.00     0.023 A 
ATOM     13  C   UNL     1     117.798 155.801 109.361  1.00  0.00     0.028 A 
ATOM     14  C   UNL     1     118.235 157.132 109.209  1.00  0.00     0.053 A 
ENDROOT
BRANCH   7  15
ATOM     15  C   UNL     1     117.856 160.305 111.168  1.00  0.00     0.000 A 
ATOM     16  C   UNL     1     118.039 161.685 111.025  1.00  0.00     0.010 A 
ATOM     17  C   UNL     1     116.888 159.822 112.057  1.00  0.00     0.010 A 
ATOM     18  C   UNL     1     117.282 162.575 111.788  1.00  0.00     0.001 A 
ATOM     19  C   UNL     1     116.133 160.716 112.819  1.00  0.00     0.001 A 
ATOM     20  C   UNL     1     116.333 162.090 112.688  1.00  0.00     0.000 A 
ENDBRANCH   7  15
TORSDOF 1
ENDMDL
MODEL 3
REMARK VINA RESULT:    -9.264      2.630      3.464
REMARK INTER + INTRA:          -9.522
REMARK INTER:                  -9.045
REMARK INTRA:                  -0.477
REMARK UNBOUND:                 0.284
REMARK SMILES CN1C(=O)CN=C(c2ccccc2)c2cc(Cl)ccc21
REMARK SMILES IDX 1 1 2 2 3 3 4 4 5 5 6 6 7 7 14 8 15 9 16 10 17 11 18 12
REMARK SMILES IDX 19 13 20 14 8 15 9 16 13 17 10 18 12 19 11 20
REMARK H PARENT
ROOT
ATOM      1  C   UNL     1     114.499 156.826 114.533  1.00  0.00     0.153 C 
ATOM      2  N   UNL     1     115.758 156.584 113.841  1.00  0.00    -0.313 N 
ATOM      3  C   UNL     1     116.374 155.346 114.065  1.00  0.00     0.248 C 
ATOM      4  O   UNL     1     115.855 154.465 114.756  1.00  0.00    -0.272 OA
ATOM      5  C   UNL     1     117.771 155.155 113.492  1.00  0.00     0.243 C 
ATOM      6  N   UNL     1     117.676 155.008 112.043  1.00  0.00    -0.274 NA
ATOM      7  C   UNL     1     117.357 156.049 111.350  1.00  0.00     0.075 C 
ATOM      8  C   UNL     1     117.147 157.409 111.930  1.00  0.00     0.026 A 
ATOM      9  C   UNL     1     117.755 158.487 111.257  1.00  0.00     0.033 A 
ATOM     10  C   UNL     1     117.511 159.792 111.666  1.00  0.00     0.041 A 
ATOM     11  Cl  UNL     1     118.242 161.104 110.829  1.00  0.00    -0.084 Cl
ATOM     12  C   UNL     1     116.670 160.041 112.741  1.00  0.00     0.023 A 
ATOM     13  C   UNL     1     116.086 158.971 113.429  1.00  0.00     0.028 A 
ATOM     14  C   UNL     1     116.334 157.634 113.059  1.00  0.00     0.053 A 
ENDROOT
BRANCH   7  15
ATOM     15  C   UNL     1     117.199 155.864 109.871  1.00  0.00     0.000 A 
ATOM     16  C   UNL     1     115.926 155.991 109.303  1.00  0.00     0.010 A 
ATOM     17  C   UNL     1     118.301 155.599 109.050  1.00  0.00     0.010 A 
ATOM     18  C   UNL     1     115.751 155.823 107.929  1.00  0.00     0.001 A 
ATOM     19  C   UNL     1     118.123 155.432 107.675  1.00  0.00     0.001 A 
ATOM     20  C   UNL     1     116.850 155.539 107.116  1.00  0.00     0.000 A 
ENDBRANCH   7  15
TORSDOF 1
ENDMDL
MODEL 4
REMARK VINA RESULT:    -8.568      2.972      5.373
REMARK INTER + INTRA:          -8.785
REMARK INTER:                  -8.821
REMARK INTRA:                   0.035
REMARK UNBOUND:                 0.284
REMARK SMILES CN1C(=O)CN=C(c2ccccc2)c2cc(Cl)ccc21
REMARK SMILES IDX 1 1 2 2 3 3 4 4 5 5 6 6 7 7 14 8 15 9 16 10 17 11 18 12
REMARK SMILES IDX 19 13 20 14 8 15 9 16 13 17 10 18 12 19 11 20
REMARK H PARENT
ROOT
ATOM      1  C   UNL     1     114.746 156.037 108.615  1.00  0.00     0.153 C 
ATOM      2  N   UNL     1     116.191 155.978 108.798  1.00  0.00    -0.313 N 
ATOM      3  C   UNL     1     116.946 155.506 107.718  1.00  0.00     0.248 C 
ATOM      4  O   UNL     1     116.435 155.216 106.632  1.00  0.00    -0.272 OA
ATOM      5  C   UNL     1     118.430 155.271 107.960  1.00  0.00     0.243 C 
ATOM      6  N   UNL     1     119.106 156.560 108.055  1.00  0.00    -0.274 NA
ATOM      7  C   UNL     1     118.883 157.283 109.101  1.00  0.00     0.075 C 
ATOM      8  C   UNL     1     118.032 156.855 110.250  1.00  0.00     0.026 A 
ATOM      9  C   UNL     1     118.548 157.076 111.541  1.00  0.00     0.033 A 
ATOM     10  C   UNL     1     117.769 156.813 112.660  1.00  0.00     0.041 A 
ATOM     11  Cl  UNL     1     118.400 157.102 114.233  1.00  0.00    -0.084 Cl
ATOM     12  C   UNL     1     116.477 156.327 112.512  1.00  0.00     0.023 A 
ATOM     13  C   UNL     1     115.970 156.080 111.232  1.00  0.00     0.028 A 
ATOM     14  C   UNL     1     116.743 156.310 110.076  1.00  0.00     0.053 A 
ENDROOT
BRANCH   7  15
ATOM     15  C   UNL     1     119.534 158.633 109.150  1.00  0.00     0.000 A 
ATOM     16  C   UNL     1     119.057 159.584 110.059  1.00  0.00     0.010 A 
ATOM     17  C   UNL     1     120.626 158.944 108.330  1.00  0.00     0.010 A 
ATOM     18  C   UNL     1     119.646 160.848 110.125  1.00  0.00     0.001 A 
ATOM     19  C   UNL     1     121.212 160.209 108.399  1.00  0.00     0.001 A 
ATOM     20  C   UNL     1     120.720 161.161 109.292  1.00  0.00     0.000 A 
ENDBRANCH   7  15
TORSDOF 1
ENDMDL
MODEL 5
REMARK VINA RESULT:    -8.248      2.997      6.078
REMARK INTER + INTRA:          -8.447
REMARK INTER:                  -8.620
REMARK INTRA:                   0.174
REMARK UNBOUND:                 0.284
REMARK SMILES CN1C(=O)CN=C(c2ccccc2)c2cc(Cl)ccc21
REMARK SMILES IDX 1 1 2 2 3 3 4 4 5 5 6 6 7 7 14 8 15 9 16 10 17 11 18 12
REMARK SMILES IDX 19 13 20 14 8 15 9 16 13 17 10 18 12 19 11 20
REMARK H PARENT
ROOT
ATOM      1  C   UNL     1     116.154 156.207 108.490  1.00  0.00     0.153 C 
ATOM      2  N   UNL     1     117.184 156.970 109.183  1.00  0.00    -0.313 N 
ATOM      3  C   UNL     1     118.178 157.554 108.388  1.00  0.00     0.248 C 
ATOM      4  O   UNL     1     118.159 157.494 107.155  1.00  0.00    -0.272 OA
ATOM      5  C   UNL     1     119.353 158.198 109.111  1.00  0.00     0.243 C 
ATOM      6  N   UNL     1     118.908 159.444 109.725  1.00  0.00    -0.274 NA
ATOM      7  C   UNL     1     118.114 159.369 110.740  1.00  0.00     0.075 C 
ATOM      8  C   UNL     1     117.677 158.087 111.367  1.00  0.00     0.026 A 
ATOM      9  C   UNL     1     117.723 158.019 112.774  1.00  0.00     0.033 A 
ATOM     10  C   UNL     1     117.224 156.905 113.436  1.00  0.00     0.041 A 
ATOM     11  Cl  UNL     1     117.268 156.837 115.154  1.00  0.00    -0.084 Cl
ATOM     12  C   UNL     1     116.679 155.851 112.716  1.00  0.00     0.023 A 
ATOM     13  C   UNL     1     116.656 155.903 111.319  1.00  0.00     0.028 A 
ATOM     14  C   UNL     1     117.179 157.005 110.613  1.00  0.00     0.053 A 
ENDROOT
BRANCH   7  15
ATOM     15  C   UNL     1     117.615 160.660 111.316  1.00  0.00     0.000 A 
ATOM     16  C   UNL     1     116.642 160.624 112.320  1.00  0.00     0.010 A 
ATOM     17  C   UNL     1     118.127 161.892 110.889  1.00  0.00     0.010 A 
ATOM     18  C   UNL     1     116.161 161.812 112.873  1.00  0.00     0.001 A 
ATOM     19  C   UNL     1     117.643 163.078 111.445  1.00  0.00     0.001 A 
ATOM     20  C   UNL     1     116.659 163.038 112.431  1.00  0.00     0.000 A 
ENDBRANCH   7  15
TORSDOF 1
ENDMDL
MODEL 6
REMARK VINA RESULT:    -7.948      3.561      5.267
REMARK INTER + INTRA:          -8.129
REMARK INTER:                  -7.918
REMARK INTRA:                  -0.211
REMARK UNBOUND:                 0.284
REMARK SMILES CN1C(=O)CN=C(c2ccccc2)c2cc(Cl)ccc21
REMARK SMILES IDX 1 1 2 2 3 3 4 4 5 5 6 6 7 7 14 8 15 9 16 10 17 11 18 12
REMARK SMILES IDX 19 13 20 14 8 15 9 16 13 17 10 18 12 19 11 20
REMARK H PARENT
ROOT
ATOM      1  C   UNL     1     113.115 156.752 115.297  1.00  0.00     0.153 C 
ATOM      2  N   UNL     1     114.539 156.973 115.081  1.00  0.00    -0.313 N 
ATOM      3  C   UNL     1     115.413 156.004 115.590  1.00  0.00     0.248 C 
ATOM      4  O   UNL     1     115.010 154.973 116.135  1.00  0.00    -0.272 OA
ATOM      5  C   UNL     1     116.901 156.315 115.530  1.00  0.00     0.243 C 
ATOM      6  N   UNL     1     117.355 156.205 114.147  1.00  0.00    -0.274 NA
ATOM      7  C   UNL     1     116.966 157.108 113.311  1.00  0.00     0.075 C 
ATOM      8  C   UNL     1     116.140 158.294 113.683  1.00  0.00     0.026 A 
ATOM      9  C   UNL     1     116.549 159.540 113.169  1.00  0.00     0.033 A 
ATOM     10  C   UNL     1     115.768 160.671 113.373  1.00  0.00     0.041 A 
ATOM     11  Cl  UNL     1     116.266 162.185 112.729  1.00  0.00    -0.084 Cl
ATOM     12  C   UNL     1     114.581 160.579 114.087  1.00  0.00     0.023 A 
ATOM     13  C   UNL     1     114.185 159.348 114.621  1.00  0.00     0.028 A 
ATOM     14  C   UNL     1     114.966 158.188 114.457  1.00  0.00     0.053 A 
ENDROOT
BRANCH   7  15
ATOM     15  C   UNL     1     117.387 156.942 111.881  1.00  0.00     0.000 A 
ATOM     16  C   UNL     1     118.516 157.629 111.421  1.00  0.00     0.010 A 
ATOM     17  C   UNL     1     116.691 156.092 111.013  1.00  0.00     0.010 A 
ATOM     18  C   UNL     1     118.929 157.492 110.096  1.00  0.00     0.001 A 
ATOM     19  C   UNL     1     117.107 155.957 109.687  1.00  0.00     0.001 A 
ATOM     20  C   UNL     1     118.221 156.659 109.228  1.00  0.00     0.000 A 
ENDBRANCH   7  15
TORSDOF 1
ENDMDL
MODEL 7
REMARK VINA RESULT:    -7.268      4.238      6.641
REMARK INTER + INTRA:          -7.409
REMARK INTER:                  -7.608
REMARK INTRA:                   0.199
REMARK UNBOUND:                 0.284
REMARK SMILES CN1C(=O)CN=C(c2ccccc2)c2cc(Cl)ccc21
REMARK SMILES IDX 1 1 2 2 3 3 4 4 5 5 6 6 7 7 14 8 15 9 16 10 17 11 18 12
REMARK SMILES IDX 19 13 20 14 8 15 9 16 13 17 10 18 12 19 11 20
REMARK H PARENT
ROOT
ATOM      1  C   UNL     1     115.859 160.505 117.600  1.00  0.00     0.153 C 
ATOM      2  N   UNL     1     115.424 160.343 116.219  1.00  0.00    -0.313 N 
ATOM      3  C   UNL     1     115.129 161.513 115.508  1.00  0.00     0.248 C 
ATOM      4  O   UNL     1     115.291 162.637 115.990  1.00  0.00    -0.272 OA
ATOM      5  C   UNL     1     114.504 161.347 114.130  1.00  0.00     0.243 C 
ATOM      6  N   UNL     1     115.521 160.867 113.201  1.00  0.00    -0.274 NA
ATOM      7  C   UNL     1     115.939 159.653 113.337  1.00  0.00     0.075 C 
ATOM      8  C   UNL     1     115.399 158.689 114.341  1.00  0.00     0.026 A 
ATOM      9  C   UNL     1     115.112 157.388 113.882  1.00  0.00     0.033 A 
ATOM     10  C   UNL     1     114.718 156.402 114.778  1.00  0.00     0.041 A 
ATOM     11  Cl  UNL     1     114.387 154.813 114.213  1.00  0.00    -0.084 Cl
ATOM     12  C   UNL     1     114.603 156.694 116.130  1.00  0.00     0.023 A 
ATOM     13  C   UNL     1     114.861 157.992 116.585  1.00  0.00     0.028 A 
ATOM     14  C   UNL     1     115.235 159.022 115.700  1.00  0.00     0.053 A 
ENDROOT
BRANCH   7  15
ATOM     15  C   UNL     1     117.032 159.199 112.416  1.00  0.00     0.000 A 
ATOM     16  C   UNL     1     117.565 160.108 111.495  1.00  0.00     0.010 A 
ATOM     17  C   UNL     1     117.545 157.898 112.484  1.00  0.00     0.010 A 
ATOM     18  C   UNL     1     118.583 159.710 110.627  1.00  0.00     0.001 A 
ATOM     19  C   UNL     1     118.564 157.504 111.614  1.00  0.00     0.001 A 
ATOM     20  C   UNL     1     119.078 158.407 110.684  1.00  0.00     0.000 A 
ENDBRANCH   7  15
TORSDOF 1
ENDMDL
MODEL 8
REMARK VINA RESULT:    -6.514      3.607      6.941
REMARK INTER + INTRA:          -6.611
REMARK INTER:                  -6.192
REMARK INTRA:                  -0.419
REMARK UNBOUND:                 0.284
REMARK SMILES CN1C(=O)CN=C(c2ccccc2)c2cc(Cl)ccc21
REMARK SMILES IDX 1 1 2 2 3 3 4 4 5 5 6 6 7 7 14 8 15 9 16 10 17 11 18 12
REMARK SMILES IDX 19 13 20 14 8 15 9 16 13 17 10 18 12 19 11 20
REMARK H PARENT
ROOT
ATOM      1  C   UNL     1     116.593 156.276 110.164  1.00  0.00     0.153 C 
ATOM      2  N   UNL     1     117.049 157.405 110.964  1.00  0.00    -0.313 N 
ATOM      3  C   UNL     1     117.712 158.434 110.284  1.00  0.00     0.248 C 
ATOM      4  O   UNL     1     117.850 158.434 109.058  1.00  0.00    -0.272 OA
ATOM      5  C   UNL     1     118.348 159.527 111.132  1.00  0.00     0.243 C 
ATOM      6  N   UNL     1     117.297 160.374 111.685  1.00  0.00    -0.274 NA
ATOM      7  C   UNL     1     116.540 159.876 112.603  1.00  0.00     0.075 C 
ATOM      8  C   UNL     1     116.716 158.512 113.185  1.00  0.00     0.026 A 
ATOM      9  C   UNL     1     116.645 158.405 114.587  1.00  0.00     0.033 A 
ATOM     10  C   UNL     1     116.682 157.157 115.196  1.00  0.00     0.041 A 
ATOM     11  Cl  UNL     1     116.578 157.033 116.907  1.00  0.00    -0.084 Cl
ATOM     12  C   UNL     1     116.791 156.008 114.425  1.00  0.00     0.023 A 
ATOM     13  C   UNL     1     116.889 156.112 113.033  1.00  0.00     0.028 A 
ATOM     14  C   UNL     1     116.883 157.363 112.385  1.00  0.00     0.053 A 
ENDROOT
BRANCH   7  15
ATOM     15  C   UNL     1     115.423 160.737 113.111  1.00  0.00     0.000 A 
ATOM     16  C   UNL     1     115.708 162.043 113.527  1.00  0.00     0.010 A 
ATOM     17  C   UNL     1     114.103 160.270 113.147  1.00  0.00     0.010 A 
ATOM     18  C   UNL     1     114.686 162.865 114.004  1.00  0.00     0.001 A 
ATOM     19  C   UNL     1     113.084 161.096 113.624  1.00  0.00     0.001 A 
ATOM     20  C   UNL     1     113.375 162.389 114.056  1.00  0.00     0.000 A 
ENDBRANCH   7  15
TORSDOF 1
ENDMDL
MODEL 9
REMARK VINA RESULT:    -6.390      4.147      6.353
REMARK INTER + INTRA:          -6.480
REMARK INTER:                  -6.706
REMARK INTRA:                   0.226
REMARK UNBOUND:                 0.284
REMARK SMILES CN1C(=O)CN=C(c2ccccc2)c2cc(Cl)ccc21
REMARK SMILES IDX 1 1 2 2 3 3 4 4 5 5 6 6 7 7 14 8 15 9 16 10 17 11 18 12
REMARK SMILES IDX 19 13 20 14 8 15 9 16 13 17 10 18 12 19 11 20
REMARK H PARENT
ROOT
ATOM      1  C   UNL     1     111.458 159.751 114.059  1.00  0.00     0.153 C 
ATOM      2  N   UNL     1     112.848 159.724 114.495  1.00  0.00    -0.313 N 
ATOM      3  C   UNL     1     113.242 158.637 115.284  1.00  0.00     0.248 C 
ATOM      4  O   UNL     1     112.481 157.702 115.549  1.00  0.00    -0.272 OA
ATOM      5  C   UNL     1     114.637 158.692 115.891  1.00  0.00     0.243 C 
ATOM      6  N   UNL     1     115.623 158.471 114.839  1.00  0.00    -0.274 NA
ATOM      7  C   UNL     1     115.791 159.403 113.963  1.00  0.00     0.075 C 
ATOM      8  C   UNL     1     115.090 160.721 113.997  1.00  0.00     0.026 A 
ATOM      9  C   UNL     1     115.878 161.866 113.775  1.00  0.00     0.033 A 
ATOM     10  C   UNL     1     115.281 163.117 113.675  1.00  0.00     0.041 A 
ATOM     11  Cl  UNL     1     116.249 164.508 113.386  1.00  0.00    -0.084 Cl
ATOM     12  C   UNL     1     113.905 163.244 113.797  1.00  0.00     0.023 A 
ATOM     13  C   UNL     1     113.121 162.112 114.045  1.00  0.00     0.028 A 
ATOM     14  C   UNL     1     113.696 160.833 114.179  1.00  0.00     0.053 A 
ENDROOT
BRANCH   7  15
ATOM     15  C   UNL     1     116.760 159.131 112.852  1.00  0.00     0.000 A 
ATOM     16  C   UNL     1     117.360 157.869 112.767  1.00  0.00     0.010 A 
ATOM     17  C   UNL     1     117.048 160.102 111.885  1.00  0.00     0.010 A 
ATOM     18  C   UNL     1     118.265 157.590 111.742  1.00  0.00     0.001 A 
ATOM     19  C   UNL     1     117.954 159.819 110.861  1.00  0.00     0.001 A 
ATOM     20  C   UNL     1     118.565 158.568 110.792  1.00  0.00     0.000 A 
ENDBRANCH   7  15
TORSDOF 1
ENDMDL
