REMARK 3D ligand generated from ChEMBL canonical SMILES with RDKit ETKDG + MMFF/UFF
ROOT
ATOM      1 C1   LIG Z   1      -3.350  -0.880  -1.470  1.00  0.00      0.015  C
ATOM      2 N2   LIG Z   1      -2.304  -0.930  -0.457  1.00  0.00     -0.313  N
ATOM      3 C3   LIG Z   1      -1.995  -2.194   0.061  1.00  0.00      0.248  C
ATOM      4 O4   LIG Z   1      -2.515  -3.228  -0.371  1.00  0.00     -0.272  O
ATOM      5 C5   LIG Z   1      -1.048  -2.247   1.251  1.00  0.00      0.119  C
ATOM      6 N6   LIG Z   1       0.300  -1.902   0.811  1.00  0.00     -0.274  N
ATOM      7 C7   LIG Z   1       0.533  -0.677   0.479  1.00  0.00      0.075  C
ATOM      8 C8   LIG Z   1       1.905  -0.354  -0.029  1.00  0.00      0.000  A
ATOM      9 C9   LIG Z   1       3.005  -1.035   0.505  1.00  0.00     -0.053  A
ATOM     10 C10  LIG Z   1       4.293  -0.752   0.049  1.00  0.00     -0.062  A
ATOM     11 C11  LIG Z   1       4.486   0.203  -0.948  1.00  0.00     -0.062  A
ATOM     12 C12  LIG Z   1       3.391   0.871  -1.498  1.00  0.00     -0.062  A
ATOM     13 C13  LIG Z   1       2.100   0.591  -1.044  1.00  0.00     -0.053  A
ATOM     14 C14  LIG Z   1      -0.474   0.420   0.579  1.00  0.00      0.026  A
ATOM     15 C15  LIG Z   1      -0.043   1.629   1.158  1.00  0.00     -0.032  A
ATOM     16 C16  LIG Z   1      -0.888   2.732   1.181  1.00  0.00      0.041  A
ATOM     17 Cl17 LIG Z   1      -0.351   4.210   1.875  1.00  0.00     -0.084 Cl
ATOM     18 C18  LIG Z   1      -2.162   2.646   0.635  1.00  0.00     -0.041  A
ATOM     19 C19  LIG Z   1      -2.602   1.439   0.083  1.00  0.00     -0.036  A
ATOM     20 C20  LIG Z   1      -1.781   0.294   0.068  1.00  0.00      0.053  A
ENDROOT
TORSDOF 0
