REMARK 3D ligand generated from ChEMBL canonical SMILES with RDKit ETKDG + MMFF/UFF
ROOT
ATOM      1 C1   LIG Z   1       3.908  -0.910   1.235  1.00  0.00     -0.004  C
ATOM      2 C2   LIG Z   1       3.240  -1.225  -0.050  1.00  0.00      0.134  A
ATOM      3 N3   LIG Z   1       3.576  -2.236  -0.825  1.00  0.00     -0.135  N
ATOM      4 N4   LIG Z   1       2.665  -2.322  -1.838  1.00  0.00     -0.133  N
ATOM      5 C5   LIG Z   1       1.784  -1.359  -1.673  1.00  0.00      0.159  A
ATOM      6 N6   LIG Z   1       2.120  -0.597  -0.575  1.00  0.00     -0.281  N
ATOM      7 C7   LIG Z   1       1.466   0.594  -0.164  1.00  0.00      0.058  A
ATOM      8 C8   LIG Z   1       2.231   1.630   0.401  1.00  0.00     -0.036  A
ATOM      9 C9   LIG Z   1       1.632   2.837   0.771  1.00  0.00     -0.041  A
ATOM     10 C10  LIG Z   1       0.270   3.022   0.572  1.00  0.00      0.041  A
ATOM     11 Cl11 LIG Z   1      -0.464   4.511   1.019  1.00  0.00     -0.084 Cl
ATOM     12 C12  LIG Z   1      -0.504   2.008   0.012  1.00  0.00     -0.032  A
ATOM     13 C13  LIG Z   1       0.081   0.783  -0.357  1.00  0.00      0.026  A
ATOM     14 C14  LIG Z   1      -0.841  -0.292  -0.849  1.00  0.00      0.076  C
ATOM     15 C15  LIG Z   1      -2.137  -0.462  -0.141  1.00  0.00      0.019  A
ATOM     16 C16  LIG Z   1      -2.109  -0.996   1.154  1.00  0.00     -0.051  A
ATOM     17 C17  LIG Z   1      -3.303  -1.188   1.850  1.00  0.00     -0.061  A
ATOM     18 C18  LIG Z   1      -4.519  -0.852   1.255  1.00  0.00     -0.061  A
ATOM     19 C19  LIG Z   1      -4.546  -0.324  -0.039  1.00  0.00     -0.043  A
ATOM     20 C20  LIG Z   1      -3.356  -0.130  -0.744  1.00  0.00      0.050  A
ATOM     21 Cl21 LIG Z   1      -3.448   0.577  -2.316  1.00  0.00     -0.084 Cl
ATOM     22 N22  LIG Z   1      -0.606  -1.116  -1.810  1.00  0.00     -0.276  N
ATOM     23 C23  LIG Z   1       0.643  -1.033  -2.553  1.00  0.00      0.100  C
ENDROOT
TORSDOF 0
