REMARK 3D ligand generated from ChEMBL canonical SMILES with RDKit ETKDG + MMFF/UFF
ROOT
ATOM      1 C1   LIG Z   1       4.768  -3.587  -1.101  1.00  0.00     -0.040  C
ATOM      2 C2   LIG Z   1       3.824  -2.454  -0.825  1.00  0.00     -0.051  A
ATOM      3 C3   LIG Z   1       3.367  -2.212   0.477  1.00  0.00     -0.059  A
ATOM      4 C4   LIG Z   1       2.516  -1.135   0.739  1.00  0.00     -0.052  A
ATOM      5 C5   LIG Z   1       2.113  -0.285  -0.296  1.00  0.00      0.002  A
ATOM      6 C6   LIG Z   1       1.232   0.836  -0.045  1.00  0.00      0.093  A
ATOM      7 N7   LIG Z   1       1.603   2.129  -0.312  1.00  0.00     -0.228  N
ATOM      8 C8   LIG Z   1       0.563   2.863   0.017  1.00  0.00      0.137  A
ATOM      9 C9   LIG Z   1       0.366   4.271  -0.030  1.00  0.00     -0.018  A
ATOM     10 C10  LIG Z   1      -0.807   4.799   0.367  1.00  0.00     -0.054  A
ATOM     11 C11  LIG Z   1      -1.903   3.960   0.846  1.00  0.00     -0.034  A
ATOM     12 C12  LIG Z   1      -3.178   4.632   1.247  1.00  0.00     -0.038  C
ATOM     13 C13  LIG Z   1      -1.714   2.627   0.890  1.00  0.00      0.014  A
ATOM     14 N14  LIG Z   1      -0.493   2.083   0.482  1.00  0.00     -0.303  N
ATOM     15 C15  LIG Z   1      -0.062   0.767   0.446  1.00  0.00      0.060  A
ATOM     16 C16  LIG Z   1      -0.912  -0.399   0.841  1.00  0.00      0.070  C
ATOM     17 C17  LIG Z   1      -1.962  -0.737  -0.222  1.00  0.00      0.228  C
ATOM     18 O18  LIG Z   1      -2.266   0.059  -1.113  1.00  0.00     -0.274  O
ATOM     19 N19  LIG Z   1      -2.598  -1.976  -0.104  1.00  0.00     -0.348  N
ATOM     20 C20  LIG Z   1      -2.190  -3.011   0.834  1.00  0.00      0.009  C
ATOM     21 C21  LIG Z   1      -3.471  -2.402  -1.186  1.00  0.00      0.009  C
ATOM     22 C22  LIG Z   1       2.593  -0.506  -1.590  1.00  0.00     -0.052  A
ATOM     23 C23  LIG Z   1       3.443  -1.584  -1.853  1.00  0.00     -0.059  A
ENDROOT
TORSDOF 0
