MODEL 1
REMARK VINA RESULT:    -6.899      0.000      0.000
REMARK INTER + INTRA:          -7.904
REMARK INTER:                  -7.504
REMARK INTRA:                  -0.401
REMARK UNBOUND:                -0.401
REMARK SMILES CN1C(=O)C(O)N=C(c2ccccc2)c2cc(Cl)ccc21
REMARK SMILES IDX 1 1 2 2 3 3 4 4 5 5 7 6 8 7 15 8 16 9 17 10 18 11 19 12
REMARK SMILES IDX 20 13 21 14 6 15 9 17 10 18 14 19 11 20 13 21 12 22
REMARK H PARENT 6 16
ROOT
ATOM      1  C   UNL     1     140.013  98.216 134.766  1.00  0.00     0.153 C 
ATOM      2  N   UNL     1     141.425  98.075 135.100  1.00  0.00    -0.311 N 
ATOM      3  C   UNL     1     142.346  98.677 134.232  1.00  0.00     0.278 C 
ATOM      4  O   UNL     1     142.007  99.192 133.161  1.00  0.00    -0.269 OA
ATOM      5  C   UNL     1     143.828  98.724 134.702  1.00  0.00     0.323 C 
ATOM      6  N   UNL     1     144.362  97.382 134.536  1.00  0.00    -0.243 NA
ATOM      7  C   UNL     1     143.950  96.463 135.342  1.00  0.00     0.078 C 
ATOM      8  C   UNL     1     143.000  96.700 136.472  1.00  0.00     0.026 A 
ATOM      9  C   UNL     1     143.337  96.130 137.714  1.00  0.00     0.033 A 
ATOM     10  C   UNL     1     142.453  96.211 138.784  1.00  0.00     0.041 A 
ATOM     11  Cl  UNL     1     142.863  95.499 140.293  1.00  0.00    -0.084 Cl
ATOM     12  C   UNL     1     141.233  96.857 138.631  1.00  0.00     0.023 A 
ATOM     13  C   UNL     1     140.906  97.446 137.407  1.00  0.00     0.028 A 
ATOM     14  C   UNL     1     141.790  97.408 136.311  1.00  0.00     0.053 A 
ENDROOT
BRANCH   5  15
ATOM     15  O   UNL     1     144.554  99.686 133.952  1.00  0.00    -0.364 OA
ATOM     16  H   UNL     1     145.427  99.269 133.834  1.00  0.00     0.213 HD
ENDBRANCH   5  15
BRANCH   7  17
ATOM     17  C   UNL     1     144.469  95.076 135.120  1.00  0.00     0.000 A 
ATOM     18  C   UNL     1     143.698  94.174 134.376  1.00  0.00     0.010 A 
ATOM     19  C   UNL     1     145.691  94.660 135.665  1.00  0.00     0.010 A 
ATOM     20  C   UNL     1     144.159  92.876 134.155  1.00  0.00     0.001 A 
ATOM     21  C   UNL     1     146.148  93.360 135.440  1.00  0.00     0.001 A 
ATOM     22  C   UNL     1     145.385  92.471 134.683  1.00  0.00     0.000 A 
ENDBRANCH   7  17
TORSDOF 2
ENDMDL
MODEL 2
REMARK VINA RESULT:    -6.571      3.935      6.357
REMARK INTER + INTRA:          -7.548
REMARK INTER:                  -7.261
REMARK INTRA:                  -0.288
REMARK UNBOUND:                -0.401
REMARK SMILES CN1C(=O)C(O)N=C(c2ccccc2)c2cc(Cl)ccc21
REMARK SMILES IDX 1 1 2 2 3 3 4 4 5 5 7 6 8 7 15 8 16 9 17 10 18 11 19 12
REMARK SMILES IDX 20 13 21 14 6 15 9 17 10 18 14 19 11 20 13 21 12 22
REMARK H PARENT 6 16
ROOT
ATOM      1  C   UNL     1     140.698  98.400 136.550  1.00  0.00     0.153 C 
ATOM      2  N   UNL     1     140.555  98.746 135.141  1.00  0.00    -0.311 N 
ATOM      3  C   UNL     1     139.787  99.879 134.839  1.00  0.00     0.278 C 
ATOM      4  O   UNL     1     139.144 100.490 135.700  1.00  0.00    -0.269 OA
ATOM      5  C   UNL     1     139.820 100.380 133.367  1.00  0.00     0.323 C 
ATOM      6  N   UNL     1     138.996  99.463 132.596  1.00  0.00    -0.243 NA
ATOM      7  C   UNL     1     139.447  98.272 132.388  1.00  0.00     0.078 C 
ATOM      8  C   UNL     1     140.788  97.791 132.842  1.00  0.00     0.026 A 
ATOM      9  C   UNL     1     141.559  97.083 131.901  1.00  0.00     0.033 A 
ATOM     10  C   UNL     1     142.766  96.506 132.278  1.00  0.00     0.041 A 
ATOM     11  Cl  UNL     1     143.695  95.629 131.129  1.00  0.00    -0.084 Cl
ATOM     12  C   UNL     1     143.218  96.628 133.586  1.00  0.00     0.023 A 
ATOM     13  C   UNL     1     142.467  97.352 134.517  1.00  0.00     0.028 A 
ATOM     14  C   UNL     1     141.253  97.973 134.162  1.00  0.00     0.053 A 
ENDROOT
BRANCH   5  15
ATOM     15  O   UNL     1     139.351 101.716 133.289  1.00  0.00    -0.364 OA
ATOM     16  H   UNL     1     140.140 102.218 133.013  1.00  0.00     0.213 HD
ENDBRANCH   5  15
BRANCH   7  17
ATOM     17  C   UNL     1     138.560  97.326 131.639  1.00  0.00     0.000 A 
ATOM     18  C   UNL     1     138.522  95.981 132.026  1.00  0.00     0.010 A 
ATOM     19  C   UNL     1     137.794  97.756 130.547  1.00  0.00     0.010 A 
ATOM     20  C   UNL     1     137.704  95.079 131.345  1.00  0.00     0.001 A 
ATOM     21  C   UNL     1     136.977  96.850 129.869  1.00  0.00     0.001 A 
ATOM     22  C   UNL     1     136.929  95.514 130.270  1.00  0.00     0.000 A 
ENDBRANCH   7  17
TORSDOF 2
ENDMDL
MODEL 3
REMARK VINA RESULT:    -6.566      1.411      1.880
REMARK INTER + INTRA:          -7.543
REMARK INTER:                  -7.067
REMARK INTRA:                  -0.476
REMARK UNBOUND:                -0.401
REMARK SMILES CN1C(=O)C(O)N=C(c2ccccc2)c2cc(Cl)ccc21
REMARK SMILES IDX 1 1 2 2 3 3 4 4 5 5 7 6 8 7 15 8 16 9 17 10 18 11 19 12
REMARK SMILES IDX 20 13 21 14 6 15 9 17 10 18 14 19 11 20 13 21 12 22
REMARK H PARENT 6 16
ROOT
ATOM      1  C   UNL     1     140.004  98.539 133.286  1.00  0.00     0.153 C 
ATOM      2  N   UNL     1     141.433  98.364 133.515  1.00  0.00    -0.311 N 
ATOM      3  C   UNL     1     142.291  98.703 132.460  1.00  0.00     0.278 C 
ATOM      4  O   UNL     1     141.872  99.009 131.338  1.00  0.00    -0.269 OA
ATOM      5  C   UNL     1     143.814  98.735 132.776  1.00  0.00     0.323 C 
ATOM      6  N   UNL     1     144.254  97.351 132.853  1.00  0.00    -0.243 NA
ATOM      7  C   UNL     1     143.878  96.653 133.870  1.00  0.00     0.078 C 
ATOM      8  C   UNL     1     143.064  97.189 135.004  1.00  0.00     0.026 A 
ATOM      9  C   UNL     1     143.495  96.865 136.303  1.00  0.00     0.033 A 
ATOM     10  C   UNL     1     142.731  97.232 137.405  1.00  0.00     0.041 A 
ATOM     11  Cl  UNL     1     143.255  96.818 138.989  1.00  0.00    -0.084 Cl
ATOM     12  C   UNL     1     141.539  97.921 137.228  1.00  0.00     0.023 A 
ATOM     13  C   UNL     1     141.120  98.267 135.940  1.00  0.00     0.028 A 
ATOM     14  C   UNL     1     141.883  97.936 134.803  1.00  0.00     0.053 A 
ENDROOT
BRANCH   5  15
ATOM     15  O   UNL     1     144.510  99.463 131.776  1.00  0.00    -0.364 OA
ATOM     16  H   UNL     1     145.401  99.575 132.156  1.00  0.00     0.213 HD
ENDBRANCH   5  15
BRANCH   7  17
ATOM     17  C   UNL     1     144.295  95.214 133.904  1.00  0.00     0.000 A 
ATOM     18  C   UNL     1     145.628  94.902 134.195  1.00  0.00     0.010 A 
ATOM     19  C   UNL     1     143.386  94.186 133.621  1.00  0.00     0.010 A 
ATOM     20  C   UNL     1     146.043  93.570 134.232  1.00  0.00     0.001 A 
ATOM     21  C   UNL     1     143.806  92.855 133.660  1.00  0.00     0.001 A 
ATOM     22  C   UNL     1     145.132  92.548 133.968  1.00  0.00     0.000 A 
ENDBRANCH   7  17
TORSDOF 2
ENDMDL
MODEL 4
REMARK VINA RESULT:    -6.514      5.297      6.973
REMARK INTER + INTRA:          -7.486
REMARK INTER:                  -7.149
REMARK INTRA:                  -0.337
REMARK UNBOUND:                -0.401
REMARK SMILES CN1C(=O)C(O)N=C(c2ccccc2)c2cc(Cl)ccc21
REMARK SMILES IDX 1 1 2 2 3 3 4 4 5 5 7 6 8 7 15 8 16 9 17 10 18 11 19 12
REMARK SMILES IDX 20 13 21 14 6 15 9 17 10 18 14 19 11 20 13 21 12 22
REMARK H PARENT 6 16
ROOT
ATOM      1  C   UNL     1     143.054  99.853 144.222  1.00  0.00     0.153 C 
ATOM      2  N   UNL     1     143.725  98.717 143.601  1.00  0.00    -0.311 N 
ATOM      3  C   UNL     1     145.109  98.822 143.410  1.00  0.00     0.278 C 
ATOM      4  O   UNL     1     145.728  99.870 143.626  1.00  0.00    -0.269 OA
ATOM      5  C   UNL     1     145.857  97.534 142.962  1.00  0.00     0.323 C 
ATOM      6  N   UNL     1     145.553  97.343 141.553  1.00  0.00    -0.243 NA
ATOM      7  C   UNL     1     144.358  96.971 141.238  1.00  0.00     0.078 C 
ATOM      8  C   UNL     1     143.281  96.672 142.231  1.00  0.00     0.026 A 
ATOM      9  C   UNL     1     142.541  95.493 142.027  1.00  0.00     0.033 A 
ATOM     10  C   UNL     1     141.452  95.201 142.840  1.00  0.00     0.041 A 
ATOM     11  Cl  UNL     1     140.542  93.768 142.576  1.00  0.00    -0.084 Cl
ATOM     12  C   UNL     1     141.091  96.073 143.859  1.00  0.00     0.023 A 
ATOM     13  C   UNL     1     141.839  97.233 144.081  1.00  0.00     0.028 A 
ATOM     14  C   UNL     1     142.965  97.545 143.294  1.00  0.00     0.053 A 
ENDROOT
BRANCH   5  15
ATOM     15  O   UNL     1     147.251  97.666 143.196  1.00  0.00    -0.364 OA
ATOM     16  H   UNL     1     147.326  98.531 143.640  1.00  0.00     0.213 HD
ENDBRANCH   5  15
BRANCH   7  17
ATOM     17  C   UNL     1     144.049  96.833 139.779  1.00  0.00     0.000 A 
ATOM     18  C   UNL     1     145.018  96.286 138.929  1.00  0.00     0.010 A 
ATOM     19  C   UNL     1     142.825  97.266 139.250  1.00  0.00     0.010 A 
ATOM     20  C   UNL     1     144.755  96.147 137.566  1.00  0.00     0.001 A 
ATOM     21  C   UNL     1     142.567  97.123 137.885  1.00  0.00     0.001 A 
ATOM     22  C   UNL     1     143.529  96.561 137.046  1.00  0.00     0.000 A 
ENDBRANCH   7  17
TORSDOF 2
ENDMDL
MODEL 5
REMARK VINA RESULT:    -6.442      2.126      4.617
REMARK INTER + INTRA:          -7.407
REMARK INTER:                  -7.122
REMARK INTRA:                  -0.285
REMARK UNBOUND:                -0.401
REMARK SMILES CN1C(=O)C(O)N=C(c2ccccc2)c2cc(Cl)ccc21
REMARK SMILES IDX 1 1 2 2 3 3 4 4 5 5 7 6 8 7 15 8 16 9 17 10 18 11 19 12
REMARK SMILES IDX 20 13 21 14 6 15 9 17 10 18 14 19 11 20 13 21 12 22
REMARK H PARENT 6 16
ROOT
ATOM      1  C   UNL     1     143.411  99.086 133.669  1.00  0.00     0.153 C 
ATOM      2  N   UNL     1     142.774  98.014 134.425  1.00  0.00    -0.311 N 
ATOM      3  C   UNL     1     141.407  98.154 134.697  1.00  0.00     0.278 C 
ATOM      4  O   UNL     1     140.782  99.188 134.434  1.00  0.00    -0.269 OA
ATOM      5  C   UNL     1     140.680  96.917 135.299  1.00  0.00     0.323 C 
ATOM      6  N   UNL     1     141.075  96.840 136.696  1.00  0.00    -0.243 NA
ATOM      7  C   UNL     1     142.285  96.480 136.962  1.00  0.00     0.078 C 
ATOM      8  C   UNL     1     143.292  96.085 135.930  1.00  0.00     0.026 A 
ATOM      9  C   UNL     1     144.035  94.917 136.183  1.00  0.00     0.033 A 
ATOM     10  C   UNL     1     145.066  94.545 135.328  1.00  0.00     0.041 A 
ATOM     11  Cl  UNL     1     145.980  93.126 135.652  1.00  0.00    -0.084 Cl
ATOM     12  C   UNL     1     145.365  95.324 134.218  1.00  0.00     0.023 A 
ATOM     13  C   UNL     1     144.613  96.471 133.950  1.00  0.00     0.028 A 
ATOM     14  C   UNL     1     143.544  96.862 134.779  1.00  0.00     0.053 A 
ENDROOT
BRANCH   5  15
ATOM     15  O   UNL     1     139.275  97.048 135.146  1.00  0.00    -0.364 OA
ATOM     16  H   UNL     1     138.918  96.605 135.938  1.00  0.00     0.213 HD
ENDBRANCH   5  15
BRANCH   7  17
ATOM     17  C   UNL     1     142.690  96.459 138.405  1.00  0.00     0.000 A 
ATOM     18  C   UNL     1     141.743  96.094 139.369  1.00  0.00     0.010 A 
ATOM     19  C   UNL     1     143.982  96.826 138.803  1.00  0.00     0.010 A 
ATOM     20  C   UNL     1     142.093  96.067 140.719  1.00  0.00     0.001 A 
ATOM     21  C   UNL     1     144.328  96.796 140.156  1.00  0.00     0.001 A 
ATOM     22  C   UNL     1     143.386  96.414 141.112  1.00  0.00     0.000 A 
ENDBRANCH   7  17
TORSDOF 2
ENDMDL
MODEL 6
REMARK VINA RESULT:    -6.357      3.532      5.331
REMARK INTER + INTRA:          -7.316
REMARK INTER:                  -7.410
REMARK INTRA:                   0.094
REMARK UNBOUND:                -0.401
REMARK SMILES CN1C(=O)C(O)N=C(c2ccccc2)c2cc(Cl)ccc21
REMARK SMILES IDX 1 1 2 2 3 3 4 4 5 5 7 6 8 7 15 8 16 9 17 10 18 11 19 12
REMARK SMILES IDX 20 13 21 14 6 15 9 17 10 18 14 19 11 20 13 21 12 22
REMARK H PARENT 6 16
ROOT
ATOM      1  C   UNL     1     140.399  96.249 130.708  1.00  0.00     0.153 C 
ATOM      2  N   UNL     1     141.075  97.202 131.580  1.00  0.00    -0.311 N 
ATOM      3  C   UNL     1     142.476  97.185 131.575  1.00  0.00     0.278 C 
ATOM      4  O   UNL     1     143.125  96.324 130.970  1.00  0.00    -0.269 OA
ATOM      5  C   UNL     1     143.197  98.343 132.323  1.00  0.00     0.323 C 
ATOM      6  N   UNL     1     143.076  98.059 133.745  1.00  0.00    -0.243 NA
ATOM      7  C   UNL     1     141.915  98.191 134.291  1.00  0.00     0.078 C 
ATOM      8  C   UNL     1     140.696  98.669 133.570  1.00  0.00     0.026 A 
ATOM      9  C   UNL     1     139.918  99.646 134.218  1.00  0.00     0.033 A 
ATOM     10  C   UNL     1     138.712 100.061 133.665  1.00  0.00     0.041 A 
ATOM     11  Cl  UNL     1     137.759 101.242 134.470  1.00  0.00    -0.084 Cl
ATOM     12  C   UNL     1     138.270  99.512 132.468  1.00  0.00     0.023 A 
ATOM     13  C   UNL     1     139.052  98.560 131.808  1.00  0.00     0.028 A 
ATOM     14  C   UNL     1     140.292  98.138 132.326  1.00  0.00     0.053 A 
ENDROOT
BRANCH   5  15
ATOM     15  O   UNL     1     144.551  98.432 131.908  1.00  0.00    -0.364 OA
ATOM     16  H   UNL     1     145.023  98.677 132.725  1.00  0.00     0.213 HD
ENDBRANCH   5  15
BRANCH   7  17
ATOM     17  C   UNL     1     141.800  97.842 135.743  1.00  0.00     0.000 A 
ATOM     18  C   UNL     1     142.958  97.500 136.452  1.00  0.00     0.010 A 
ATOM     19  C   UNL     1     140.557  97.823 136.391  1.00  0.00     0.010 A 
ATOM     20  C   UNL     1     142.877  97.170 137.806  1.00  0.00     0.001 A 
ATOM     21  C   UNL     1     140.483  97.493 137.745  1.00  0.00     0.001 A 
ATOM     22  C   UNL     1     141.642  97.170 138.452  1.00  0.00     0.000 A 
ENDBRANCH   7  17
TORSDOF 2
ENDMDL
MODEL 7
REMARK VINA RESULT:    -6.313      3.311      5.501
REMARK INTER + INTRA:          -7.268
REMARK INTER:                  -6.842
REMARK INTRA:                  -0.426
REMARK UNBOUND:                -0.401
REMARK SMILES CN1C(=O)C(O)N=C(c2ccccc2)c2cc(Cl)ccc21
REMARK SMILES IDX 1 1 2 2 3 3 4 4 5 5 7 6 8 7 15 8 16 9 17 10 18 11 19 12
REMARK SMILES IDX 20 13 21 14 6 15 9 17 10 18 14 19 11 20 13 21 12 22
REMARK H PARENT 6 16
ROOT
ATOM      1  C   UNL     1     144.117  94.695 131.398  1.00  0.00     0.153 C 
ATOM      2  N   UNL     1     143.411  95.891 131.840  1.00  0.00    -0.311 N 
ATOM      3  C   UNL     1     144.166  97.064 131.971  1.00  0.00     0.278 C 
ATOM      4  O   UNL     1     145.396  97.075 131.851  1.00  0.00    -0.269 OA
ATOM      5  C   UNL     1     143.380  98.383 132.219  1.00  0.00     0.323 C 
ATOM      6  N   UNL     1     142.950  98.358 133.608  1.00  0.00    -0.243 NA
ATOM      7  C   UNL     1     142.017  97.531 133.938  1.00  0.00     0.078 C 
ATOM      8  C   UNL     1     141.309  96.635 132.973  1.00  0.00     0.026 A 
ATOM      9  C   UNL     1     139.906  96.581 133.070  1.00  0.00     0.033 A 
ATOM     10  C   UNL     1     139.184  95.689 132.285  1.00  0.00     0.041 A 
ATOM     11  Cl  UNL     1     137.472  95.616 132.420  1.00  0.00    -0.084 Cl
ATOM     12  C   UNL     1     139.845  94.848 131.400  1.00  0.00     0.023 A 
ATOM     13  C   UNL     1     141.237  94.916 131.282  1.00  0.00     0.028 A 
ATOM     14  C   UNL     1     141.996  95.827 132.042  1.00  0.00     0.053 A 
ENDROOT
BRANCH   5  15
ATOM     15  O   UNL     1     144.197  99.507 131.931  1.00  0.00    -0.364 OA
ATOM     16  H   UNL     1     143.639 100.049 131.343  1.00  0.00     0.213 HD
ENDBRANCH   5  15
BRANCH   7  17
ATOM     17  C   UNL     1     141.627  97.481 135.383  1.00  0.00     0.000 A 
ATOM     18  C   UNL     1     142.159  96.471 136.195  1.00  0.00     0.010 A 
ATOM     19  C   UNL     1     140.723  98.403 135.925  1.00  0.00     0.010 A 
ATOM     20  C   UNL     1     141.812  96.402 137.544  1.00  0.00     0.001 A 
ATOM     21  C   UNL     1     140.379  98.330 137.277  1.00  0.00     0.001 A 
ATOM     22  C   UNL     1     140.926  97.333 138.085  1.00  0.00     0.000 A 
ENDBRANCH   7  17
TORSDOF 2
ENDMDL
MODEL 8
REMARK VINA RESULT:    -6.100      3.516      5.522
REMARK INTER + INTRA:          -7.036
REMARK INTER:                  -6.689
REMARK INTRA:                  -0.348
REMARK UNBOUND:                -0.401
REMARK SMILES CN1C(=O)C(O)N=C(c2ccccc2)c2cc(Cl)ccc21
REMARK SMILES IDX 1 1 2 2 3 3 4 4 5 5 7 6 8 7 15 8 16 9 17 10 18 11 19 12
REMARK SMILES IDX 20 13 21 14 6 15 9 17 10 18 14 19 11 20 13 21 12 22
REMARK H PARENT 6 16
ROOT
ATOM      1  C   UNL     1     141.933  95.789 137.712  1.00  0.00     0.153 C 
ATOM      2  N   UNL     1     141.598  96.670 136.599  1.00  0.00    -0.311 N 
ATOM      3  C   UNL     1     140.561  97.589 136.806  1.00  0.00     0.278 C 
ATOM      4  O   UNL     1     139.863  97.581 137.827  1.00  0.00    -0.269 OA
ATOM      5  C   UNL     1     140.355  98.675 135.712  1.00  0.00     0.323 C 
ATOM      6  N   UNL     1     139.712  98.016 134.586  1.00  0.00    -0.243 NA
ATOM      7  C   UNL     1     140.415  97.191 133.886  1.00  0.00     0.078 C 
ATOM      8  C   UNL     1     141.864  96.909 134.124  1.00  0.00     0.026 A 
ATOM      9  C   UNL     1     142.702  96.902 132.994  1.00  0.00     0.033 A 
ATOM     10  C   UNL     1     144.038  96.539 133.117  1.00  0.00     0.041 A 
ATOM     11  Cl  UNL     1     145.053  96.515 131.730  1.00  0.00    -0.084 Cl
ATOM     12  C   UNL     1     144.552  96.184 134.357  1.00  0.00     0.023 A 
ATOM     13  C   UNL     1     143.729  96.214 135.486  1.00  0.00     0.028 A 
ATOM     14  C   UNL     1     142.378  96.604 135.403  1.00  0.00     0.053 A 
ENDROOT
BRANCH   5  15
ATOM     15  O   UNL     1     139.577  99.747 136.220  1.00  0.00    -0.364 OA
ATOM     16  H   UNL     1     138.845  99.298 136.681  1.00  0.00     0.213 HD
ENDBRANCH   5  15
BRANCH   7  17
ATOM     17  C   UNL     1     139.720  96.481 132.765  1.00  0.00     0.000 A 
ATOM     18  C   UNL     1     138.812  97.192 131.972  1.00  0.00     0.010 A 
ATOM     19  C   UNL     1     139.940  95.120 132.519  1.00  0.00     0.010 A 
ATOM     20  C   UNL     1     138.150  96.554 130.922  1.00  0.00     0.001 A 
ATOM     21  C   UNL     1     139.276  94.486 131.466  1.00  0.00     0.001 A 
ATOM     22  C   UNL     1     138.386  95.203 130.667  1.00  0.00     0.000 A 
ENDBRANCH   7  17
TORSDOF 2
ENDMDL
MODEL 9
REMARK VINA RESULT:    -6.094      1.731      2.416
REMARK INTER + INTRA:          -7.029
REMARK INTER:                  -7.022
REMARK INTRA:                  -0.008
REMARK UNBOUND:                -0.401
REMARK SMILES CN1C(=O)C(O)N=C(c2ccccc2)c2cc(Cl)ccc21
REMARK SMILES IDX 1 1 2 2 3 3 4 4 5 5 7 6 8 7 15 8 16 9 17 10 18 11 19 12
REMARK SMILES IDX 20 13 21 14 6 15 9 17 10 18 14 19 11 20 13 21 12 22
REMARK H PARENT 6 16
ROOT
ATOM      1  C   UNL     1     140.221  98.024 137.438  1.00  0.00     0.153 C 
ATOM      2  N   UNL     1     141.273  97.856 136.442  1.00  0.00    -0.311 N 
ATOM      3  C   UNL     1     141.101  98.517 135.219  1.00  0.00     0.278 C 
ATOM      4  O   UNL     1     140.055  99.108 134.928  1.00  0.00    -0.269 OA
ATOM      5  C   UNL     1     142.316  98.527 134.248  1.00  0.00     0.323 C 
ATOM      6  N   UNL     1     142.392  97.199 133.660  1.00  0.00    -0.243 NA
ATOM      7  C   UNL     1     142.777  96.226 134.415  1.00  0.00     0.078 C 
ATOM      8  C   UNL     1     143.202  96.383 135.839  1.00  0.00     0.026 A 
ATOM      9  C   UNL     1     144.385  95.725 136.224  1.00  0.00     0.033 A 
ATOM     10  C   UNL     1     144.786  95.730 137.555  1.00  0.00     0.041 A 
ATOM     11  Cl  UNL     1     146.223  94.910 138.022  1.00  0.00    -0.084 Cl
ATOM     12  C   UNL     1     144.022  96.388 138.510  1.00  0.00     0.023 A 
ATOM     13  C   UNL     1     142.861  97.064 138.127  1.00  0.00     0.028 A 
ATOM     14  C   UNL     1     142.439  97.103 136.784  1.00  0.00     0.053 A 
ENDROOT
BRANCH   5  15
ATOM     15  O   UNL     1     142.155  99.539 133.266  1.00  0.00    -0.364 OA
ATOM     16  H   UNL     1     141.223  99.807 133.366  1.00  0.00     0.213 HD
ENDBRANCH   5  15
BRANCH   7  17
ATOM     17  C   UNL     1     142.796  94.857 133.806  1.00  0.00     0.000 A 
ATOM     18  C   UNL     1     141.587  94.277 133.402  1.00  0.00     0.010 A 
ATOM     19  C   UNL     1     143.991  94.141 133.663  1.00  0.00     0.010 A 
ATOM     20  C   UNL     1     141.577  93.003 132.834  1.00  0.00     0.001 A 
ATOM     21  C   UNL     1     143.976  92.867 133.092  1.00  0.00     0.001 A 
ATOM     22  C   UNL     1     142.771  92.301 132.675  1.00  0.00     0.000 A 
ENDBRANCH   7  17
TORSDOF 2
ENDMDL
