MODEL 1
REMARK VINA RESULT:    -9.653      0.000      0.000
REMARK INTER + INTRA:         -11.851
REMARK INTER:                 -11.346
REMARK INTRA:                  -0.504
REMARK UNBOUND:                -0.504
REMARK SMILES CN1CCN(C(=O)OC2c3nccnc3C(=O)N2c2ccc(Cl)cn2)CC1
REMARK SMILES IDX 9 1 10 2 11 3 12 4 13 5 14 6 15 7 16 8 17 9 18 10 8 11 6 12
REMARK SMILES IDX 2 13 3 14 27 15 4 16 26 17 5 18 7 19 1 20 19 21 20 22 25 23
REMARK SMILES IDX 21 24 24 25 22 26 23 27
REMARK H PARENT
ROOT
ATOM      1  C   UNL     1     118.340 158.159 108.840  1.00  0.00     0.338 C 
ATOM      2  C   UNL     1     117.412 157.093 108.312  1.00  0.00     0.134 A 
ATOM      3  N   UNL     1     116.223 156.698 108.823  1.00  0.00    -0.251 NA
ATOM      4  C   UNL     1     115.631 155.696 108.124  1.00  0.00     0.131 A 
ATOM      5  C   UNL     1     116.200 155.127 106.983  1.00  0.00     0.132 A 
ATOM      6  N   UNL     1     117.393 155.525 106.476  1.00  0.00    -0.247 NA
ATOM      7  C   UNL     1     117.963 156.518 107.187  1.00  0.00     0.156 A 
ATOM      8  C   UNL     1     119.244 157.174 106.892  1.00  0.00     0.283 C 
ATOM      9  O   UNL     1     119.953 156.881 105.946  1.00  0.00    -0.267 OA
ATOM     10  N   UNL     1     119.424 158.151 107.862  1.00  0.00    -0.248 N 
ENDROOT
BRANCH   1  11
ATOM     11  O   UNL     1     118.854 157.735 110.098  1.00  0.00    -0.419 OA
BRANCH  11  12
ATOM     12  C   UNL     1     118.333 158.397 111.161  1.00  0.00     0.412 C 
ATOM     13  N   UNL     1     117.136 155.714 114.357  1.00  0.00    -0.303 NA
ATOM     14  C   UNL     1     116.896 155.386 112.938  1.00  0.00     0.106 C 
ATOM     15  C   UNL     1     117.567 157.115 114.553  1.00  0.00     0.106 C 
ATOM     16  C   UNL     1     117.880 156.078 111.980  1.00  0.00     0.138 C 
ATOM     17  C   UNL     1     117.300 158.060 113.366  1.00  0.00     0.138 C 
ATOM     18  N   UNL     1     117.846 157.534 112.119  1.00  0.00    -0.306 N 
ATOM     19  O   UNL     1     118.301 159.617 111.264  1.00  0.00    -0.224 OA
ATOM     20  C   UNL     1     115.968 155.384 115.170  1.00  0.00     0.105 C 
ENDBRANCH  11  12
ENDBRANCH   1  11
BRANCH  10  21
ATOM     21  C   UNL     1     120.465 159.090 107.957  1.00  0.00     0.138 A 
ATOM     22  C   UNL     1     121.661 158.950 107.257  1.00  0.00     0.049 A 
ATOM     23  N   UNL     1     120.247 160.157 108.762  1.00  0.00    -0.237 NA
ATOM     24  C   UNL     1     122.659 159.921 107.390  1.00  0.00     0.026 A 
ATOM     25  C   UNL     1     121.229 161.087 108.878  1.00  0.00     0.134 A 
ATOM     26  C   UNL     1     122.440 161.011 108.216  1.00  0.00     0.059 A 
ATOM     27  Cl  UNL     1     123.635 162.224 108.410  1.00  0.00    -0.083 Cl
ENDBRANCH  10  21
TORSDOF 3
ENDMDL
MODEL 2
REMARK VINA RESULT:    -8.595      3.057      5.485
REMARK INTER + INTRA:         -10.606
REMARK INTER:                 -10.289
REMARK INTRA:                  -0.317
REMARK UNBOUND:                -0.504
REMARK SMILES CN1CCN(C(=O)OC2c3nccnc3C(=O)N2c2ccc(Cl)cn2)CC1
REMARK SMILES IDX 9 1 10 2 11 3 12 4 13 5 14 6 15 7 16 8 17 9 18 10 8 11 6 12
REMARK SMILES IDX 2 13 3 14 27 15 4 16 26 17 5 18 7 19 1 20 19 21 20 22 25 23
REMARK SMILES IDX 21 24 24 25 22 26 23 27
REMARK H PARENT
ROOT
ATOM      1  C   UNL     1     119.442 158.152 108.791  1.00  0.00     0.338 C 
ATOM      2  C   UNL     1     120.570 159.068 108.385  1.00  0.00     0.134 A 
ATOM      3  N   UNL     1     121.465 159.690 109.186  1.00  0.00    -0.251 NA
ATOM      4  C   UNL     1     122.354 160.467 108.516  1.00  0.00     0.131 A 
ATOM      5  C   UNL     1     122.342 160.611 107.127  1.00  0.00     0.132 A 
ATOM      6  N   UNL     1     121.440 159.987 106.328  1.00  0.00    -0.247 NA
ATOM      7  C   UNL     1     120.568 159.223 107.016  1.00  0.00     0.156 A 
ATOM      8  C   UNL     1     119.482 158.415 106.443  1.00  0.00     0.283 C 
ATOM      9  O   UNL     1     119.245 158.346 105.250  1.00  0.00    -0.267 OA
ATOM     10  N   UNL     1     118.859 157.776 107.507  1.00  0.00    -0.248 N 
ENDROOT
BRANCH   1  11
ATOM     11  O   UNL     1     118.484 158.906 109.526  1.00  0.00    -0.419 OA
BRANCH  11  12
ATOM     12  C   UNL     1     118.229 158.419 110.766  1.00  0.00     0.412 C 
ATOM     13  N   UNL     1     115.588 161.003 113.047  1.00  0.00    -0.303 NA
ATOM     14  C   UNL     1     116.660 161.550 112.191  1.00  0.00     0.106 C 
ATOM     15  C   UNL     1     115.696 159.539 113.230  1.00  0.00     0.106 C 
ATOM     16  C   UNL     1     117.055 160.611 111.039  1.00  0.00     0.138 C 
ATOM     17  C   UNL     1     117.064 158.928 112.870  1.00  0.00     0.138 C 
ATOM     18  N   UNL     1     117.489 159.301 111.526  1.00  0.00    -0.306 N 
ATOM     19  O   UNL     1     118.604 157.325 111.167  1.00  0.00    -0.224 OA
ATOM     20  C   UNL     1     115.534 161.709 114.324  1.00  0.00     0.105 C 
ENDBRANCH  11  12
ENDBRANCH   1  11
BRANCH  10  21
ATOM     21  C   UNL     1     117.814 156.838 107.455  1.00  0.00     0.138 A 
ATOM     22  C   UNL     1     117.877 155.694 106.663  1.00  0.00     0.049 A 
ATOM     23  N   UNL     1     116.732 157.093 108.229  1.00  0.00    -0.237 NA
ATOM     24  C   UNL     1     116.806 154.795 106.657  1.00  0.00     0.026 A 
ATOM     25  C   UNL     1     115.703 156.208 108.208  1.00  0.00     0.134 A 
ATOM     26  C   UNL     1     115.696 155.056 107.445  1.00  0.00     0.059 A 
ATOM     27  Cl  UNL     1     114.360 153.983 107.467  1.00  0.00    -0.083 Cl
ENDBRANCH  10  21
TORSDOF 3
ENDMDL
MODEL 3
REMARK VINA RESULT:    -8.169      2.329      5.975
REMARK INTER + INTRA:         -10.106
REMARK INTER:                  -9.821
REMARK INTRA:                  -0.285
REMARK UNBOUND:                -0.504
REMARK SMILES CN1CCN(C(=O)OC2c3nccnc3C(=O)N2c2ccc(Cl)cn2)CC1
REMARK SMILES IDX 9 1 10 2 11 3 12 4 13 5 14 6 15 7 16 8 17 9 18 10 8 11 6 12
REMARK SMILES IDX 2 13 3 14 27 15 4 16 26 17 5 18 7 19 1 20 19 21 20 22 25 23
REMARK SMILES IDX 21 24 24 25 22 26 23 27
REMARK H PARENT
ROOT
ATOM      1  C   UNL     1     118.031 158.315 110.065  1.00  0.00     0.338 C 
ATOM      2  C   UNL     1     117.423 157.959 111.399  1.00  0.00     0.134 A 
ATOM      3  N   UNL     1     117.078 158.795 112.405  1.00  0.00    -0.251 NA
ATOM      4  C   UNL     1     116.567 158.162 113.492  1.00  0.00     0.131 A 
ATOM      5  C   UNL     1     116.416 156.776 113.563  1.00  0.00     0.132 A 
ATOM      6  N   UNL     1     116.767 155.942 112.553  1.00  0.00    -0.247 NA
ATOM      7  C   UNL     1     117.272 156.592 111.486  1.00  0.00     0.156 A 
ATOM      8  C   UNL     1     117.732 155.978 110.232  1.00  0.00     0.283 C 
ATOM      9  O   UNL     1     117.707 154.780 110.016  1.00  0.00    -0.267 OA
ATOM     10  N   UNL     1     118.144 157.017 109.408  1.00  0.00    -0.248 N 
ENDROOT
BRANCH   1  11
ATOM     11  O   UNL     1     119.339 158.834 110.283  1.00  0.00    -0.419 OA
BRANCH  11  12
ATOM     12  C   UNL     1     119.434 160.179 110.130  1.00  0.00     0.412 C 
ATOM     13  N   UNL     1     122.518 161.307 107.290  1.00  0.00    -0.303 NA
ATOM     14  C   UNL     1     122.719 160.211 108.260  1.00  0.00     0.106 C 
ATOM     15  C   UNL     1     121.305 162.103 107.574  1.00  0.00     0.106 C 
ATOM     16  C   UNL     1     121.404 159.559 108.720  1.00  0.00     0.138 C 
ATOM     17  C   UNL     1     120.721 161.935 108.990  1.00  0.00     0.138 C 
ATOM     18  N   UNL     1     120.492 160.533 109.321  1.00  0.00    -0.306 N 
ATOM     19  O   UNL     1     118.671 160.986 110.645  1.00  0.00    -0.224 OA
ATOM     20  C   UNL     1     123.711 162.144 107.200  1.00  0.00     0.105 C 
ENDBRANCH  11  12
ENDBRANCH   1  11
BRANCH  10  21
ATOM     21  C   UNL     1     118.593 156.936 108.079  1.00  0.00     0.138 A 
ATOM     22  C   UNL     1     117.724 156.738 107.009  1.00  0.00     0.049 A 
ATOM     23  N   UNL     1     119.926 157.070 107.881  1.00  0.00    -0.237 NA
ATOM     24  C   UNL     1     118.232 156.670 105.708  1.00  0.00     0.026 A 
ATOM     25  C   UNL     1     120.399 157.000 106.611  1.00  0.00     0.134 A 
ATOM     26  C   UNL     1     119.595 156.803 105.503  1.00  0.00     0.059 A 
ATOM     27  Cl  UNL     1     120.261 156.725 103.926  1.00  0.00    -0.083 Cl
ENDBRANCH  10  21
TORSDOF 3
ENDMDL
MODEL 4
REMARK VINA RESULT:    -8.160      3.858      6.763
REMARK INTER + INTRA:         -10.096
REMARK INTER:                  -9.464
REMARK INTRA:                  -0.631
REMARK UNBOUND:                -0.504
REMARK SMILES CN1CCN(C(=O)OC2c3nccnc3C(=O)N2c2ccc(Cl)cn2)CC1
REMARK SMILES IDX 9 1 10 2 11 3 12 4 13 5 14 6 15 7 16 8 17 9 18 10 8 11 6 12
REMARK SMILES IDX 2 13 3 14 27 15 4 16 26 17 5 18 7 19 1 20 19 21 20 22 25 23
REMARK SMILES IDX 21 24 24 25 22 26 23 27
REMARK H PARENT
ROOT
ATOM      1  C   UNL     1     117.065 157.455 114.302  1.00  0.00     0.338 C 
ATOM      2  C   UNL     1     116.476 158.413 115.308  1.00  0.00     0.134 A 
ATOM      3  N   UNL     1     116.440 158.286 116.655  1.00  0.00    -0.251 NA
ATOM      4  C   UNL     1     115.821 159.316 117.287  1.00  0.00     0.131 A 
ATOM      5  C   UNL     1     115.272 160.405 116.606  1.00  0.00     0.132 A 
ATOM      6  N   UNL     1     115.308 160.526 115.256  1.00  0.00    -0.247 NA
ATOM      7  C   UNL     1     115.925 159.491 114.651  1.00  0.00     0.156 A 
ATOM      8  C   UNL     1     116.138 159.331 113.205  1.00  0.00     0.283 C 
ATOM      9  O   UNL     1     115.767 160.139 112.373  1.00  0.00    -0.267 OA
ATOM     10  N   UNL     1     116.835 158.142 113.035  1.00  0.00    -0.248 N 
ENDROOT
BRANCH   1  11
ATOM     11  O   UNL     1     116.304 156.252 114.317  1.00  0.00    -0.419 OA
BRANCH  11  12
ATOM     12  C   UNL     1     117.026 155.144 114.617  1.00  0.00     0.412 C 
ATOM     13  N   UNL     1     115.718 153.267 118.308  1.00  0.00    -0.303 NA
ATOM     14  C   UNL     1     115.809 154.735 118.173  1.00  0.00     0.106 C 
ATOM     15  C   UNL     1     116.351 152.552 117.179  1.00  0.00     0.106 C 
ATOM     16  C   UNL     1     115.675 155.221 116.720  1.00  0.00     0.138 C 
ATOM     17  C   UNL     1     117.313 153.393 116.320  1.00  0.00     0.138 C 
ATOM     18  N   UNL     1     116.686 154.623 115.848  1.00  0.00    -0.306 N 
ATOM     19  O   UNL     1     117.877 154.656 113.884  1.00  0.00    -0.224 OA
ATOM     20  C   UNL     1     116.249 152.832 119.597  1.00  0.00     0.105 C 
ENDBRANCH  11  12
ENDBRANCH   1  11
BRANCH  10  21
ATOM     21  C   UNL     1     117.333 157.599 111.839  1.00  0.00     0.138 A 
ATOM     22  C   UNL     1     118.518 158.042 111.255  1.00  0.00     0.049 A 
ATOM     23  N   UNL     1     116.606 156.605 111.275  1.00  0.00    -0.237 NA
ATOM     24  C   UNL     1     118.965 157.459 110.066  1.00  0.00     0.026 A 
ATOM     25  C   UNL     1     117.056 156.054 110.120  1.00  0.00     0.134 A 
ATOM     26  C   UNL     1     118.220 156.446 109.485  1.00  0.00     0.059 A 
ATOM     27  Cl  UNL     1     118.728 155.704 108.026  1.00  0.00    -0.083 Cl
ENDBRANCH  10  21
TORSDOF 3
ENDMDL
MODEL 5
REMARK VINA RESULT:    -7.859      3.905      6.830
REMARK INTER + INTRA:          -9.742
REMARK INTER:                  -8.898
REMARK INTRA:                  -0.844
REMARK UNBOUND:                -0.504
REMARK SMILES CN1CCN(C(=O)OC2c3nccnc3C(=O)N2c2ccc(Cl)cn2)CC1
REMARK SMILES IDX 9 1 10 2 11 3 12 4 13 5 14 6 15 7 16 8 17 9 18 10 8 11 6 12
REMARK SMILES IDX 2 13 3 14 27 15 4 16 26 17 5 18 7 19 1 20 19 21 20 22 25 23
REMARK SMILES IDX 21 24 24 25 22 26 23 27
REMARK H PARENT
ROOT
ATOM      1  C   UNL     1     116.216 156.375 114.294  1.00  0.00     0.338 C 
ATOM      2  C   UNL     1     116.210 155.427 115.467  1.00  0.00     0.134 A 
ATOM      3  N   UNL     1     115.515 155.538 116.622  1.00  0.00    -0.251 NA
ATOM      4  C   UNL     1     115.737 154.522 117.495  1.00  0.00     0.131 A 
ATOM      5  C   UNL     1     116.605 153.463 117.224  1.00  0.00     0.132 A 
ATOM      6  N   UNL     1     117.302 153.358 116.065  1.00  0.00    -0.247 NA
ATOM      7  C   UNL     1     117.067 154.377 115.215  1.00  0.00     0.156 A 
ATOM      8  C   UNL     1     117.655 154.548 113.879  1.00  0.00     0.283 C 
ATOM      9  O   UNL     1     118.444 153.765 113.382  1.00  0.00    -0.267 OA
ATOM     10  N   UNL     1     117.115 155.714 113.353  1.00  0.00    -0.248 N 
ENDROOT
BRANCH   1  11
ATOM     11  O   UNL     1     116.806 157.605 114.704  1.00  0.00    -0.419 OA
BRANCH  11  12
ATOM     12  C   UNL     1     116.093 158.705 114.356  1.00  0.00     0.412 C 
ATOM     13  N   UNL     1     114.786 160.989 117.809  1.00  0.00    -0.303 NA
ATOM     14  C   UNL     1     114.758 159.513 117.800  1.00  0.00     0.106 C 
ATOM     15  C   UNL     1     115.045 161.563 116.471  1.00  0.00     0.106 C 
ATOM     16  C   UNL     1     115.779 158.893 116.830  1.00  0.00     0.138 C 
ATOM     17  C   UNL     1     114.833 160.600 115.288  1.00  0.00     0.138 C 
ATOM     18  N   UNL     1     115.580 159.358 115.457  1.00  0.00    -0.306 N 
ATOM     19  O   UNL     1     115.925 159.081 113.203  1.00  0.00    -0.224 OA
ATOM     20  C   UNL     1     113.565 161.526 118.405  1.00  0.00     0.105 C 
ENDBRANCH  11  12
ENDBRANCH   1  11
BRANCH  10  21
ATOM     21  C   UNL     1     117.315 156.254 112.071  1.00  0.00     0.138 A 
ATOM     22  C   UNL     1     118.410 157.057 111.763  1.00  0.00     0.049 A 
ATOM     23  N   UNL     1     116.387 155.946 111.133  1.00  0.00    -0.237 NA
ATOM     24  C   UNL     1     118.556 157.562 110.467  1.00  0.00     0.026 A 
ATOM     25  C   UNL     1     116.547 156.447 109.882  1.00  0.00     0.134 A 
ATOM     26  C   UNL     1     117.607 157.252 109.507  1.00  0.00     0.059 A 
ATOM     27  Cl  UNL     1     117.745 157.850 107.906  1.00  0.00    -0.083 Cl
ENDBRANCH  10  21
TORSDOF 3
ENDMDL
MODEL 6
REMARK VINA RESULT:    -7.828      4.405      6.830
REMARK INTER + INTRA:          -9.705
REMARK INTER:                  -8.946
REMARK INTRA:                  -0.759
REMARK UNBOUND:                -0.504
REMARK SMILES CN1CCN(C(=O)OC2c3nccnc3C(=O)N2c2ccc(Cl)cn2)CC1
REMARK SMILES IDX 9 1 10 2 11 3 12 4 13 5 14 6 15 7 16 8 17 9 18 10 8 11 6 12
REMARK SMILES IDX 2 13 3 14 27 15 4 16 26 17 5 18 7 19 1 20 19 21 20 22 25 23
REMARK SMILES IDX 21 24 24 25 22 26 23 27
REMARK H PARENT
ROOT
ATOM      1  C   UNL     1     116.184 159.144 113.079  1.00  0.00     0.338 C 
ATOM      2  C   UNL     1     117.192 158.760 112.025  1.00  0.00     0.134 A 
ATOM      3  N   UNL     1     117.647 157.522 111.721  1.00  0.00    -0.251 NA
ATOM      4  C   UNL     1     118.571 157.507 110.726  1.00  0.00     0.131 A 
ATOM      5  C   UNL     1     119.011 158.664 110.080  1.00  0.00     0.132 A 
ATOM      6  N   UNL     1     118.554 159.902 110.390  1.00  0.00    -0.247 NA
ATOM      7  C   UNL     1     117.640 159.893 111.381  1.00  0.00     0.156 A 
ATOM      8  C   UNL     1     116.949 161.065 111.936  1.00  0.00     0.283 C 
ATOM      9  O   UNL     1     117.134 162.205 111.552  1.00  0.00    -0.267 OA
ATOM     10  N   UNL     1     116.080 160.590 112.910  1.00  0.00    -0.248 N 
ENDROOT
BRANCH   1  11
ATOM     11  O   UNL     1     116.738 158.870 114.362  1.00  0.00    -0.419 OA
BRANCH  11  12
ATOM     12  C   UNL     1     115.862 158.318 115.238  1.00  0.00     0.412 C 
ATOM     13  N   UNL     1     116.999 154.291 116.398  1.00  0.00    -0.303 NA
ATOM     14  C   UNL     1     117.136 154.766 115.007  1.00  0.00     0.106 C 
ATOM     15  C   UNL     1     116.217 155.221 117.242  1.00  0.00     0.106 C 
ATOM     16  C   UNL     1     117.290 156.293 114.898  1.00  0.00     0.138 C 
ATOM     17  C   UNL     1     115.368 156.253 116.476  1.00  0.00     0.138 C 
ATOM     18  N   UNL     1     116.163 157.000 115.508  1.00  0.00    -0.306 N 
ATOM     19  O   UNL     1     114.917 158.916 115.736  1.00  0.00    -0.224 OA
ATOM     20  C   UNL     1     116.456 152.936 116.432  1.00  0.00     0.105 C 
ENDBRANCH  11  12
ENDBRANCH   1  11
BRANCH  10  21
ATOM     21  C   UNL     1     115.151 161.323 113.668  1.00  0.00     0.138 A 
ATOM     22  C   UNL     1     113.778 161.230 113.456  1.00  0.00     0.049 A 
ATOM     23  N   UNL     1     115.656 162.127 114.633  1.00  0.00    -0.237 NA
ATOM     24  C   UNL     1     112.903 161.983 114.245  1.00  0.00     0.026 A 
ATOM     25  C   UNL     1     114.790 162.850 115.388  1.00  0.00     0.134 A 
ATOM     26  C   UNL     1     113.417 162.809 115.231  1.00  0.00     0.059 A 
ATOM     27  Cl  UNL     1     112.382 163.750 116.221  1.00  0.00    -0.083 Cl
ENDBRANCH  10  21
TORSDOF 3
ENDMDL
MODEL 7
REMARK VINA RESULT:    -7.796      3.764      6.149
REMARK INTER + INTRA:          -9.668
REMARK INTER:                  -8.759
REMARK INTRA:                  -0.909
REMARK UNBOUND:                -0.504
REMARK SMILES CN1CCN(C(=O)OC2c3nccnc3C(=O)N2c2ccc(Cl)cn2)CC1
REMARK SMILES IDX 9 1 10 2 11 3 12 4 13 5 14 6 15 7 16 8 17 9 18 10 8 11 6 12
REMARK SMILES IDX 2 13 3 14 27 15 4 16 26 17 5 18 7 19 1 20 19 21 20 22 25 23
REMARK SMILES IDX 21 24 24 25 22 26 23 27
REMARK H PARENT
ROOT
ATOM      1  C   UNL     1     118.199 158.598 111.107  1.00  0.00     0.338 C 
ATOM      2  C   UNL     1     118.775 158.297 109.745  1.00  0.00     0.134 A 
ATOM      3  N   UNL     1     119.392 159.151 108.896  1.00  0.00    -0.251 NA
ATOM      4  C   UNL     1     119.787 158.576 107.731  1.00  0.00     0.131 A 
ATOM      5  C   UNL     1     119.572 157.227 107.439  1.00  0.00     0.132 A 
ATOM      6  N   UNL     1     118.951 156.376 108.292  1.00  0.00    -0.247 NA
ATOM      7  C   UNL     1     118.567 156.969 109.440  1.00  0.00     0.156 A 
ATOM      8  C   UNL     1     117.884 156.320 110.568  1.00  0.00     0.283 C 
ATOM      9  O   UNL     1     117.580 155.141 110.587  1.00  0.00    -0.267 OA
ATOM     10  N   UNL     1     117.708 157.294 111.541  1.00  0.00    -0.248 N 
ENDROOT
BRANCH   1  11
ATOM     11  O   UNL     1     117.090 159.477 110.949  1.00  0.00    -0.419 OA
BRANCH  11  12
ATOM     12  C   UNL     1     117.353 160.766 111.278  1.00  0.00     0.412 C 
ATOM     13  N   UNL     1     114.915 162.157 114.591  1.00  0.00    -0.303 NA
ATOM     14  C   UNL     1     114.359 161.301 113.524  1.00  0.00     0.106 C 
ATOM     15  C   UNL     1     116.262 162.673 114.263  1.00  0.00     0.106 C 
ATOM     16  C   UNL     1     115.420 160.430 112.829  1.00  0.00     0.138 C 
ATOM     17  C   UNL     1     116.658 162.587 112.778  1.00  0.00     0.138 C 
ATOM     18  N   UNL     1     116.494 161.237 112.248  1.00  0.00    -0.306 N 
ATOM     19  O   UNL     1     118.249 161.436 110.780  1.00  0.00    -0.224 OA
ATOM     20  C   UNL     1     113.986 163.232 114.929  1.00  0.00     0.105 C 
ENDBRANCH  11  12
ENDBRANCH   1  11
BRANCH  10  21
ATOM     21  C   UNL     1     117.170 157.138 112.830  1.00  0.00     0.138 A 
ATOM     22  C   UNL     1     117.926 157.332 113.983  1.00  0.00     0.049 A 
ATOM     23  N   UNL     1     115.861 156.795 112.902  1.00  0.00    -0.237 NA
ATOM     24  C   UNL     1     117.332 157.164 115.237  1.00  0.00     0.026 A 
ATOM     25  C   UNL     1     115.304 156.636 114.130  1.00  0.00     0.134 A 
ATOM     26  C   UNL     1     115.995 156.810 115.314  1.00  0.00     0.059 A 
ATOM     27  Cl  UNL     1     115.227 156.592 116.830  1.00  0.00    -0.083 Cl
ENDBRANCH  10  21
TORSDOF 3
ENDMDL
MODEL 8
REMARK VINA RESULT:    -7.583      3.375      7.239
REMARK INTER + INTRA:          -9.417
REMARK INTER:                  -9.355
REMARK INTRA:                  -0.063
REMARK UNBOUND:                -0.504
REMARK SMILES CN1CCN(C(=O)OC2c3nccnc3C(=O)N2c2ccc(Cl)cn2)CC1
REMARK SMILES IDX 9 1 10 2 11 3 12 4 13 5 14 6 15 7 16 8 17 9 18 10 8 11 6 12
REMARK SMILES IDX 2 13 3 14 27 15 4 16 26 17 5 18 7 19 1 20 19 21 20 22 25 23
REMARK SMILES IDX 21 24 24 25 22 26 23 27
REMARK H PARENT
ROOT
ATOM      1  C   UNL     1     116.977 157.237 113.825  1.00  0.00     0.338 C 
ATOM      2  C   UNL     1     116.755 155.929 114.544  1.00  0.00     0.134 A 
ATOM      3  N   UNL     1     117.460 154.781 114.419  1.00  0.00    -0.251 NA
ATOM      4  C   UNL     1     116.999 153.767 115.196  1.00  0.00     0.131 A 
ATOM      5  C   UNL     1     115.897 153.899 116.042  1.00  0.00     0.132 A 
ATOM      6  N   UNL     1     115.191 155.051 116.162  1.00  0.00    -0.247 NA
ATOM      7  C   UNL     1     115.666 156.042 115.381  1.00  0.00     0.156 A 
ATOM      8  C   UNL     1     115.132 157.409 115.292  1.00  0.00     0.283 C 
ATOM      9  O   UNL     1     114.174 157.805 115.930  1.00  0.00    -0.267 OA
ATOM     10  N   UNL     1     115.940 158.093 114.393  1.00  0.00    -0.248 N 
ENDROOT
BRANCH   1  11
ATOM     11  O   UNL     1     116.708 157.047 112.440  1.00  0.00    -0.419 OA
BRANCH  11  12
ATOM     12  C   UNL     1     117.798 157.170 111.642  1.00  0.00     0.412 C 
ATOM     13  N   UNL     1     116.881 156.424 107.464  1.00  0.00    -0.303 NA
ATOM     14  C   UNL     1     116.296 155.606 108.545  1.00  0.00     0.106 C 
ATOM     15  C   UNL     1     117.968 157.305 107.942  1.00  0.00     0.106 C 
ATOM     16  C   UNL     1     116.213 156.347 109.891  1.00  0.00     0.138 C 
ATOM     17  C   UNL     1     118.560 156.939 109.316  1.00  0.00     0.138 C 
ATOM     18  N   UNL     1     117.526 156.815 110.338  1.00  0.00    -0.306 N 
ATOM     19  O   UNL     1     118.894 157.554 112.028  1.00  0.00    -0.224 OA
ATOM     20  C   UNL     1     117.312 155.581 106.352  1.00  0.00     0.105 C 
ENDBRANCH  11  12
ENDBRANCH   1  11
BRANCH  10  21
ATOM     21  C   UNL     1     115.873 159.450 114.035  1.00  0.00     0.138 A 
ATOM     22  C   UNL     1     116.345 159.924 112.813  1.00  0.00     0.049 A 
ATOM     23  N   UNL     1     115.314 160.288 114.940  1.00  0.00    -0.237 NA
ATOM     24  C   UNL     1     116.247 161.286 112.514  1.00  0.00     0.026 A 
ATOM     25  C   UNL     1     115.229 161.607 114.631  1.00  0.00     0.134 A 
ATOM     26  C   UNL     1     115.678 162.146 113.439  1.00  0.00     0.059 A 
ATOM     27  Cl  UNL     1     115.540 163.823 113.115  1.00  0.00    -0.083 Cl
ENDBRANCH  10  21
TORSDOF 3
ENDMDL
MODEL 9
REMARK VINA RESULT:    -7.547      4.204      8.480
REMARK INTER + INTRA:          -9.375
REMARK INTER:                  -8.463
REMARK INTRA:                  -0.913
REMARK UNBOUND:                -0.504
REMARK SMILES CN1CCN(C(=O)OC2c3nccnc3C(=O)N2c2ccc(Cl)cn2)CC1
REMARK SMILES IDX 9 1 10 2 11 3 12 4 13 5 14 6 15 7 16 8 17 9 18 10 8 11 6 12
REMARK SMILES IDX 2 13 3 14 27 15 4 16 26 17 5 18 7 19 1 20 19 21 20 22 25 23
REMARK SMILES IDX 21 24 24 25 22 26 23 27
REMARK H PARENT
ROOT
ATOM      1  C   UNL     1     116.491 157.362 115.371  1.00  0.00     0.338 C 
ATOM      2  C   UNL     1     116.612 155.880 115.629  1.00  0.00     0.134 A 
ATOM      3  N   UNL     1     117.327 154.970 114.928  1.00  0.00    -0.251 NA
ATOM      4  C   UNL     1     117.218 153.703 115.404  1.00  0.00     0.131 A 
ATOM      5  C   UNL     1     116.438 153.373 116.514  1.00  0.00     0.132 A 
ATOM      6  N   UNL     1     115.721 154.289 117.212  1.00  0.00    -0.247 NA
ATOM      7  C   UNL     1     115.844 155.538 116.720  1.00  0.00     0.156 A 
ATOM      8  C   UNL     1     115.206 156.749 117.256  1.00  0.00     0.283 C 
ATOM      9  O   UNL     1     114.475 156.755 118.230  1.00  0.00    -0.267 OA
ATOM     10  N   UNL     1     115.628 157.806 116.461  1.00  0.00    -0.248 N 
ENDROOT
BRANCH   1  11
ATOM     11  O   UNL     1     115.808 157.556 114.137  1.00  0.00    -0.419 OA
BRANCH  11  12
ATOM     12  C   UNL     1     116.449 158.381 113.272  1.00  0.00     0.412 C 
ATOM     13  N   UNL     1     117.246 156.479 109.451  1.00  0.00    -0.303 NA
ATOM     14  C   UNL     1     117.403 155.753 110.728  1.00  0.00     0.106 C 
ATOM     15  C   UNL     1     117.054 157.933 109.643  1.00  0.00     0.106 C 
ATOM     16  C   UNL     1     116.529 156.319 111.860  1.00  0.00     0.138 C 
ATOM     17  C   UNL     1     117.452 158.474 111.030  1.00  0.00     0.138 C 
ATOM     18  N   UNL     1     116.805 157.735 112.108  1.00  0.00    -0.306 N 
ATOM     19  O   UNL     1     116.683 159.563 113.493  1.00  0.00    -0.224 OA
ATOM     20  C   UNL     1     118.358 156.190 108.550  1.00  0.00     0.105 C 
ENDBRANCH  11  12
ENDBRANCH   1  11
BRANCH  10  21
ATOM     21  C   UNL     1     115.347 159.173 116.624  1.00  0.00     0.138 A 
ATOM     22  C   UNL     1     114.229 159.778 116.053  1.00  0.00     0.049 A 
ATOM     23  N   UNL     1     116.216 159.885 117.381  1.00  0.00    -0.237 NA
ATOM     24  C   UNL     1     114.001 161.143 116.256  1.00  0.00     0.026 A 
ATOM     25  C   UNL     1     115.977 161.208 117.564  1.00  0.00     0.134 A 
ATOM     26  C   UNL     1     114.892 161.873 117.026  1.00  0.00     0.059 A 
ATOM     27  Cl  UNL     1     114.652 163.548 117.298  1.00  0.00    -0.083 Cl
ENDBRANCH  10  21
TORSDOF 3
ENDMDL
