MODEL 1
REMARK VINA RESULT:    -9.788      0.000      0.000
REMARK INTER + INTRA:         -11.018
REMARK INTER:                 -10.646
REMARK INTRA:                  -0.372
REMARK UNBOUND:                -0.372
REMARK SMILES CN1C(=O)C(O)N=C(c2ccccc2)c2cc(Cl)ccc21
REMARK SMILES IDX 1 1 2 2 3 3 4 4 5 5 7 6 8 7 15 8 16 9 17 10 18 11 19 12
REMARK SMILES IDX 20 13 21 14 6 15 9 17 10 18 14 19 11 20 13 21 12 22
REMARK H PARENT 6 16
ROOT
ATOM      1  C   UNL     1     116.320 160.638 112.476  1.00  0.00     0.153 C 
ATOM      2  N   UNL     1     117.293 159.798 111.787  1.00  0.00    -0.311 N 
ATOM      3  C   UNL     1     118.140 160.430 110.866  1.00  0.00     0.278 C 
ATOM      4  O   UNL     1     117.996 161.614 110.541  1.00  0.00    -0.269 OA
ATOM      5  C   UNL     1     119.320 159.588 110.304  1.00  0.00     0.323 C 
ATOM      6  N   UNL     1     118.751 158.666 109.334  1.00  0.00    -0.243 NA
ATOM      7  C   UNL     1     118.033 157.690 109.778  1.00  0.00     0.078 C 
ATOM      8  C   UNL     1     117.794 157.413 111.227  1.00  0.00     0.026 A 
ATOM      9  C   UNL     1     117.938 156.078 111.650  1.00  0.00     0.033 A 
ATOM     10  C   UNL     1     117.625 155.721 112.956  1.00  0.00     0.041 A 
ATOM     11  Cl  UNL     1     117.788 154.086 113.462  1.00  0.00    -0.084 Cl
ATOM     12  C   UNL     1     117.170 156.680 113.851  1.00  0.00     0.023 A 
ATOM     13  C   UNL     1     117.049 158.012 113.442  1.00  0.00     0.028 A 
ATOM     14  C   UNL     1     117.384 158.414 112.134  1.00  0.00     0.053 A 
ENDROOT
BRANCH   5  15
ATOM     15  O   UNL     1     120.300 160.436 109.725  1.00  0.00    -0.364 OA
ATOM     16  H   UNL     1     119.998 161.331 109.967  1.00  0.00     0.213 HD
ENDBRANCH   5  15
BRANCH   7  17
ATOM     17  C   UNL     1     117.410 156.783 108.761  1.00  0.00     0.000 A 
ATOM     18  C   UNL     1     118.172 156.374 107.659  1.00  0.00     0.010 A 
ATOM     19  C   UNL     1     116.078 156.365 108.878  1.00  0.00     0.010 A 
ATOM     20  C   UNL     1     117.615 155.531 106.698  1.00  0.00     0.001 A 
ATOM     21  C   UNL     1     115.526 155.520 107.913  1.00  0.00     0.001 A 
ATOM     22  C   UNL     1     116.294 155.101 106.827  1.00  0.00     0.000 A 
ENDBRANCH   7  17
TORSDOF 2
ENDMDL
MODEL 2
REMARK VINA RESULT:    -8.457      3.257      6.126
REMARK INTER + INTRA:          -9.570
REMARK INTER:                  -9.833
REMARK INTRA:                   0.262
REMARK UNBOUND:                -0.372
REMARK SMILES CN1C(=O)C(O)N=C(c2ccccc2)c2cc(Cl)ccc21
REMARK SMILES IDX 1 1 2 2 3 3 4 4 5 5 7 6 8 7 15 8 16 9 17 10 18 11 19 12
REMARK SMILES IDX 20 13 21 14 6 15 9 17 10 18 14 19 11 20 13 21 12 22
REMARK H PARENT 6 16
ROOT
ATOM      1  C   UNL     1     117.294 156.548 107.223  1.00  0.00     0.153 C 
ATOM      2  N   UNL     1     117.882 156.967 108.490  1.00  0.00    -0.311 N 
ATOM      3  C   UNL     1     117.360 156.389 109.655  1.00  0.00     0.278 C 
ATOM      4  O   UNL     1     116.363 155.660 109.642  1.00  0.00    -0.269 OA
ATOM      5  C   UNL     1     118.130 156.659 110.980  1.00  0.00     0.323 C 
ATOM      6  N   UNL     1     117.822 158.025 111.372  1.00  0.00    -0.243 NA
ATOM      7  C   UNL     1     118.330 158.983 110.673  1.00  0.00     0.078 C 
ATOM      8  C   UNL     1     119.260 158.782 109.520  1.00  0.00     0.026 A 
ATOM      9  C   UNL     1     120.410 159.593 109.484  1.00  0.00     0.033 A 
ATOM     10  C   UNL     1     121.265 159.545 108.390  1.00  0.00     0.041 A 
ATOM     11  Cl  UNL     1     122.659 160.550 108.344  1.00  0.00    -0.084 Cl
ATOM     12  C   UNL     1     120.989 158.695 107.327  1.00  0.00     0.023 A 
ATOM     13  C   UNL     1     119.861 157.870 107.370  1.00  0.00     0.028 A 
ATOM     14  C   UNL     1     118.989 157.872 108.476  1.00  0.00     0.053 A 
ENDROOT
BRANCH   5  15
ATOM     15  O   UNL     1     117.751 155.718 111.972  1.00  0.00    -0.364 OA
ATOM     16  H   UNL     1     117.025 155.223 111.550  1.00  0.00     0.213 HD
ENDBRANCH   5  15
BRANCH   7  17
ATOM     17  C   UNL     1     117.956 160.381 111.059  1.00  0.00     0.000 A 
ATOM     18  C   UNL     1     116.901 160.578 111.960  1.00  0.00     0.010 A 
ATOM     19  C   UNL     1     118.620 161.489 110.516  1.00  0.00     0.010 A 
ATOM     20  C   UNL     1     116.533 161.870 112.335  1.00  0.00     0.001 A 
ATOM     21  C   UNL     1     118.248 162.780 110.896  1.00  0.00     0.001 A 
ATOM     22  C   UNL     1     117.208 162.969 111.806  1.00  0.00     0.000 A 
ENDBRANCH   7  17
TORSDOF 2
ENDMDL
MODEL 3
REMARK VINA RESULT:    -7.154      4.348      5.791
REMARK INTER + INTRA:          -8.153
REMARK INTER:                  -8.455
REMARK INTRA:                   0.302
REMARK UNBOUND:                -0.372
REMARK SMILES CN1C(=O)C(O)N=C(c2ccccc2)c2cc(Cl)ccc21
REMARK SMILES IDX 1 1 2 2 3 3 4 4 5 5 7 6 8 7 15 8 16 9 17 10 18 11 19 12
REMARK SMILES IDX 20 13 21 14 6 15 9 17 10 18 14 19 11 20 13 21 12 22
REMARK H PARENT 6 16
ROOT
ATOM      1  C   UNL     1     116.671 157.221 117.304  1.00  0.00     0.153 C 
ATOM      2  N   UNL     1     116.160 157.293 115.940  1.00  0.00    -0.311 N 
ATOM      3  C   UNL     1     116.013 156.081 115.251  1.00  0.00     0.278 C 
ATOM      4  O   UNL     1     116.416 155.006 115.711  1.00  0.00    -0.269 OA
ATOM      5  C   UNL     1     115.260 156.132 113.891  1.00  0.00     0.323 C 
ATOM      6  N   UNL     1     116.182 156.711 112.926  1.00  0.00    -0.243 NA
ATOM      7  C   UNL     1     116.451 157.968 113.026  1.00  0.00     0.078 C 
ATOM      8  C   UNL     1     115.835 158.882 114.037  1.00  0.00     0.026 A 
ATOM      9  C   UNL     1     115.366 160.123 113.567  1.00  0.00     0.033 A 
ATOM     10  C   UNL     1     114.883 161.072 114.460  1.00  0.00     0.041 A 
ATOM     11  Cl  UNL     1     114.326 162.591 113.882  1.00  0.00    -0.084 Cl
ATOM     12  C   UNL     1     114.861 160.798 115.822  1.00  0.00     0.023 A 
ATOM     13  C   UNL     1     115.303 159.558 116.290  1.00  0.00     0.028 A 
ATOM     14  C   UNL     1     115.772 158.563 115.410  1.00  0.00     0.053 A 
ENDROOT
BRANCH   5  15
ATOM     15  O   UNL     1     114.835 154.832 113.513  1.00  0.00    -0.364 OA
ATOM     16  H   UNL     1     114.622 154.929 112.567  1.00  0.00     0.213 HD
ENDBRANCH   5  15
BRANCH   7  17
ATOM     17  C   UNL     1     117.444 158.533 112.057  1.00  0.00     0.000 A 
ATOM     18  C   UNL     1     118.385 157.676 111.474  1.00  0.00     0.010 A 
ATOM     19  C   UNL     1     117.464 159.900 111.750  1.00  0.00     0.010 A 
ATOM     20  C   UNL     1     119.321 158.177 110.568  1.00  0.00     0.001 A 
ATOM     21  C   UNL     1     118.403 160.396 110.842  1.00  0.00     0.001 A 
ATOM     22  C   UNL     1     119.327 159.535 110.250  1.00  0.00     0.000 A 
ENDBRANCH   7  17
TORSDOF 2
ENDMDL
MODEL 4
REMARK VINA RESULT:    -7.051      4.844      6.979
REMARK INTER + INTRA:          -8.042
REMARK INTER:                  -7.613
REMARK INTRA:                  -0.429
REMARK UNBOUND:                -0.372
REMARK SMILES CN1C(=O)C(O)N=C(c2ccccc2)c2cc(Cl)ccc21
REMARK SMILES IDX 1 1 2 2 3 3 4 4 5 5 7 6 8 7 15 8 16 9 17 10 18 11 19 12
REMARK SMILES IDX 20 13 21 14 6 15 9 17 10 18 14 19 11 20 13 21 12 22
REMARK H PARENT 6 16
ROOT
ATOM      1  C   UNL     1     116.231 154.827 117.562  1.00  0.00     0.153 C 
ATOM      2  N   UNL     1     116.594 156.148 117.065  1.00  0.00    -0.311 N 
ATOM      3  C   UNL     1     116.795 157.154 118.020  1.00  0.00     0.278 C 
ATOM      4  O   UNL     1     116.552 156.984 119.220  1.00  0.00    -0.269 OA
ATOM      5  C   UNL     1     117.400 158.495 117.513  1.00  0.00     0.323 C 
ATOM      6  N   UNL     1     116.333 159.197 116.818  1.00  0.00    -0.243 NA
ATOM      7  C   UNL     1     115.947 158.734 115.677  1.00  0.00     0.078 C 
ATOM      8  C   UNL     1     116.563 157.554 114.997  1.00  0.00     0.026 A 
ATOM      9  C   UNL     1     116.854 157.693 113.627  1.00  0.00     0.033 A 
ATOM     10  C   UNL     1     117.323 156.606 112.898  1.00  0.00     0.041 A 
ATOM     11  Cl  UNL     1     117.661 156.777 111.222  1.00  0.00    -0.084 Cl
ATOM     12  C   UNL     1     117.508 155.378 113.521  1.00  0.00     0.023 A 
ATOM     13  C   UNL     1     117.244 155.244 114.886  1.00  0.00     0.028 A 
ATOM     14  C   UNL     1     116.795 156.331 115.661  1.00  0.00     0.053 A 
ENDROOT
BRANCH   5  15
ATOM     15  O   UNL     1     117.916 159.246 118.600  1.00  0.00    -0.364 OA
ATOM     16  H   UNL     1     118.452 159.935 118.166  1.00  0.00     0.213 HD
ENDBRANCH   5  15
BRANCH   7  17
ATOM     17  C   UNL     1     114.810 159.440 115.003  1.00  0.00     0.000 A 
ATOM     18  C   UNL     1     113.519 158.908 115.117  1.00  0.00     0.010 A 
ATOM     19  C   UNL     1     115.020 160.597 114.243  1.00  0.00     0.010 A 
ATOM     20  C   UNL     1     112.443 159.545 114.499  1.00  0.00     0.001 A 
ATOM     21  C   UNL     1     113.939 161.232 113.627  1.00  0.00     0.001 A 
ATOM     22  C   UNL     1     112.653 160.708 113.757  1.00  0.00     0.000 A 
ENDBRANCH   7  17
TORSDOF 2
ENDMDL
MODEL 5
REMARK VINA RESULT:    -6.942      4.072      5.694
REMARK INTER + INTRA:          -7.923
REMARK INTER:                  -7.494
REMARK INTRA:                  -0.428
REMARK UNBOUND:                -0.372
REMARK SMILES CN1C(=O)C(O)N=C(c2ccccc2)c2cc(Cl)ccc21
REMARK SMILES IDX 1 1 2 2 3 3 4 4 5 5 7 6 8 7 15 8 16 9 17 10 18 11 19 12
REMARK SMILES IDX 20 13 21 14 6 15 9 17 10 18 14 19 11 20 13 21 12 22
REMARK H PARENT 6 16
ROOT
ATOM      1  C   UNL     1     113.925 160.129 117.274  1.00  0.00     0.153 C 
ATOM      2  N   UNL     1     114.934 159.149 116.890  1.00  0.00    -0.311 N 
ATOM      3  C   UNL     1     116.229 159.341 117.388  1.00  0.00     0.278 C 
ATOM      4  O   UNL     1     116.553 160.356 118.014  1.00  0.00    -0.269 OA
ATOM      5  C   UNL     1     117.246 158.183 117.170  1.00  0.00     0.323 C 
ATOM      6  N   UNL     1     117.643 158.235 115.772  1.00  0.00    -0.243 NA
ATOM      7  C   UNL     1     116.777 157.879 114.884  1.00  0.00     0.078 C 
ATOM      8  C   UNL     1     115.409 157.366 115.202  1.00  0.00     0.026 A 
ATOM      9  C   UNL     1     114.989 156.214 114.512  1.00  0.00     0.033 A 
ATOM     10  C   UNL     1     113.691 155.740 114.668  1.00  0.00     0.041 A 
ATOM     11  Cl  UNL     1     113.179 154.342 113.810  1.00  0.00    -0.084 Cl
ATOM     12  C   UNL     1     112.805 156.401 115.508  1.00  0.00     0.023 A 
ATOM     13  C   UNL     1     113.227 157.531 116.214  1.00  0.00     0.028 A 
ATOM     14  C   UNL     1     114.542 158.022 116.101  1.00  0.00     0.053 A 
ENDROOT
BRANCH   5  15
ATOM     15  O   UNL     1     118.352 158.326 118.047  1.00  0.00    -0.364 OA
ATOM     16  H   UNL     1     117.998 158.038 118.909  1.00  0.00     0.213 HD
ENDBRANCH   5  15
BRANCH   7  17
ATOM     17  C   UNL     1     117.187 157.992 113.448  1.00  0.00     0.000 A 
ATOM     18  C   UNL     1     116.778 159.110 112.711  1.00  0.00     0.010 A 
ATOM     19  C   UNL     1     117.942 156.989 112.826  1.00  0.00     0.010 A 
ATOM     20  C   UNL     1     117.146 159.239 111.372  1.00  0.00     0.001 A 
ATOM     21  C   UNL     1     118.308 157.122 111.485  1.00  0.00     0.001 A 
ATOM     22  C   UNL     1     117.914 158.247 110.761  1.00  0.00     0.000 A 
ENDBRANCH   7  17
TORSDOF 2
ENDMDL
MODEL 6
REMARK VINA RESULT:    -6.473      2.998      4.512
REMARK INTER + INTRA:          -7.412
REMARK INTER:                  -7.339
REMARK INTRA:                  -0.073
REMARK UNBOUND:                -0.372
REMARK SMILES CN1C(=O)C(O)N=C(c2ccccc2)c2cc(Cl)ccc21
REMARK SMILES IDX 1 1 2 2 3 3 4 4 5 5 7 6 8 7 15 8 16 9 17 10 18 11 19 12
REMARK SMILES IDX 20 13 21 14 6 15 9 17 10 18 14 19 11 20 13 21 12 22
REMARK H PARENT 6 16
ROOT
ATOM      1  C   UNL     1     112.086 159.716 114.143  1.00  0.00     0.153 C 
ATOM      2  N   UNL     1     113.533 159.855 114.252  1.00  0.00    -0.311 N 
ATOM      3  C   UNL     1     114.074 161.116 113.966  1.00  0.00     0.278 C 
ATOM      4  O   UNL     1     113.391 162.041 113.513  1.00  0.00    -0.269 OA
ATOM      5  C   UNL     1     115.579 161.328 114.299  1.00  0.00     0.323 C 
ATOM      6  N   UNL     1     116.336 160.633 113.270  1.00  0.00    -0.243 NA
ATOM      7  C   UNL     1     116.332 159.343 113.284  1.00  0.00     0.078 C 
ATOM      8  C   UNL     1     115.644 158.515 114.322  1.00  0.00     0.026 A 
ATOM      9  C   UNL     1     116.376 157.444 114.866  1.00  0.00     0.033 A 
ATOM     10  C   UNL     1     115.770 156.562 115.753  1.00  0.00     0.041 A 
ATOM     11  Cl  UNL     1     116.664 155.246 116.402  1.00  0.00    -0.084 Cl
ATOM     12  C   UNL     1     114.438 156.735 116.106  1.00  0.00     0.023 A 
ATOM     13  C   UNL     1     113.714 157.812 115.587  1.00  0.00     0.028 A 
ATOM     14  C   UNL     1     114.305 158.741 114.708  1.00  0.00     0.053 A 
ENDROOT
BRANCH   5  15
ATOM     15  O   UNL     1     115.884 162.713 114.345  1.00  0.00    -0.364 OA
ATOM     16  H   UNL     1     115.017 163.131 114.497  1.00  0.00     0.213 HD
ENDBRANCH   5  15
BRANCH   7  17
ATOM     17  C   UNL     1     117.072 158.646 112.184  1.00  0.00     0.000 A 
ATOM     18  C   UNL     1     118.021 159.363 111.445  1.00  0.00     0.010 A 
ATOM     19  C   UNL     1     116.811 157.307 111.866  1.00  0.00     0.010 A 
ATOM     20  C   UNL     1     118.724 158.737 110.415  1.00  0.00     0.001 A 
ATOM     21  C   UNL     1     117.518 156.685 110.835  1.00  0.00     0.001 A 
ATOM     22  C   UNL     1     118.475 157.398 110.113  1.00  0.00     0.000 A 
ENDBRANCH   7  17
TORSDOF 2
ENDMDL
MODEL 7
REMARK VINA RESULT:    -6.223      4.335      6.856
REMARK INTER + INTRA:          -7.141
REMARK INTER:                  -6.660
REMARK INTRA:                  -0.480
REMARK UNBOUND:                -0.372
REMARK SMILES CN1C(=O)C(O)N=C(c2ccccc2)c2cc(Cl)ccc21
REMARK SMILES IDX 1 1 2 2 3 3 4 4 5 5 7 6 8 7 15 8 16 9 17 10 18 11 19 12
REMARK SMILES IDX 20 13 21 14 6 15 9 17 10 18 14 19 11 20 13 21 12 22
REMARK H PARENT 6 16
ROOT
ATOM      1  C   UNL     1     115.140 154.837 114.507  1.00  0.00     0.153 C 
ATOM      2  N   UNL     1     115.701 156.143 114.830  1.00  0.00    -0.311 N 
ATOM      3  C   UNL     1     115.714 156.513 116.181  1.00  0.00     0.278 C 
ATOM      4  O   UNL     1     115.163 155.837 117.057  1.00  0.00    -0.269 OA
ATOM      5  C   UNL     1     116.512 157.796 116.552  1.00  0.00     0.323 C 
ATOM      6  N   UNL     1     115.705 158.927 116.123  1.00  0.00    -0.243 NA
ATOM      7  C   UNL     1     115.596 159.147 114.856  1.00  0.00     0.078 C 
ATOM      8  C   UNL     1     116.289 158.346 113.802  1.00  0.00     0.026 A 
ATOM      9  C   UNL     1     116.929 159.067 112.777  1.00  0.00     0.033 A 
ATOM     10  C   UNL     1     117.500 158.396 111.701  1.00  0.00     0.041 A 
ATOM     11  Cl  UNL     1     118.266 159.283 110.444  1.00  0.00    -0.084 Cl
ATOM     12  C   UNL     1     117.442 157.010 111.634  1.00  0.00     0.023 A 
ATOM     13  C   UNL     1     116.829 156.289 112.663  1.00  0.00     0.028 A 
ATOM     14  C   UNL     1     116.266 156.935 113.781  1.00  0.00     0.053 A 
ENDROOT
BRANCH   5  15
ATOM     15  O   UNL     1     116.780 157.826 117.945  1.00  0.00    -0.364 OA
ATOM     16  H   UNL     1     115.930 158.103 118.333  1.00  0.00     0.213 HD
ENDBRANCH   5  15
BRANCH   7  17
ATOM     17  C   UNL     1     114.716 160.283 114.433  1.00  0.00     0.000 A 
ATOM     18  C   UNL     1     115.164 161.596 114.626  1.00  0.00     0.010 A 
ATOM     19  C   UNL     1     113.450 160.055 113.879  1.00  0.00     0.010 A 
ATOM     20  C   UNL     1     114.364 162.672 114.242  1.00  0.00     0.001 A 
ATOM     21  C   UNL     1     112.653 161.136 113.495  1.00  0.00     0.001 A 
ATOM     22  C   UNL     1     113.111 162.442 113.673  1.00  0.00     0.000 A 
ENDBRANCH   7  17
TORSDOF 2
ENDMDL
MODEL 8
REMARK VINA RESULT:    -6.179      4.087      6.327
REMARK INTER + INTRA:          -7.093
REMARK INTER:                  -6.676
REMARK INTRA:                  -0.417
REMARK UNBOUND:                -0.372
REMARK SMILES CN1C(=O)C(O)N=C(c2ccccc2)c2cc(Cl)ccc21
REMARK SMILES IDX 1 1 2 2 3 3 4 4 5 5 7 6 8 7 15 8 16 9 17 10 18 11 19 12
REMARK SMILES IDX 20 13 21 14 6 15 9 17 10 18 14 19 11 20 13 21 12 22
REMARK H PARENT 6 16
ROOT
ATOM      1  C   UNL     1     116.318 163.309 113.434  1.00  0.00     0.153 C 
ATOM      2  N   UNL     1     115.634 162.025 113.329  1.00  0.00    -0.311 N 
ATOM      3  C   UNL     1     114.292 161.986 113.730  1.00  0.00     0.278 C 
ATOM      4  O   UNL     1     113.735 162.947 114.272  1.00  0.00    -0.269 OA
ATOM      5  C   UNL     1     113.500 160.686 113.409  1.00  0.00     0.323 C 
ATOM      6  N   UNL     1     113.943 159.681 114.363  1.00  0.00    -0.243 NA
ATOM      7  C   UNL     1     115.133 159.202 114.227  1.00  0.00     0.078 C 
ATOM      8  C   UNL     1     116.067 159.571 113.120  1.00  0.00     0.026 A 
ATOM      9  C   UNL     1     116.732 158.514 112.472  1.00  0.00     0.033 A 
ATOM     10  C   UNL     1     117.699 158.781 111.510  1.00  0.00     0.041 A 
ATOM     11  Cl  UNL     1     118.520 157.486 110.734  1.00  0.00    -0.084 Cl
ATOM     12  C   UNL     1     118.012 160.094 111.183  1.00  0.00     0.023 A 
ATOM     13  C   UNL     1     117.336 161.146 111.806  1.00  0.00     0.028 A 
ATOM     14  C   UNL     1     116.331 160.911 112.765  1.00  0.00     0.053 A 
ENDROOT
BRANCH   5  15
ATOM     15  O   UNL     1     112.104 160.925 113.491  1.00  0.00    -0.364 OA
ATOM     16  H   UNL     1     111.887 161.309 112.622  1.00  0.00     0.213 HD
ENDBRANCH   5  15
BRANCH   7  17
ATOM     17  C   UNL     1     115.590 158.209 115.251  1.00  0.00     0.000 A 
ATOM     18  C   UNL     1     115.192 156.872 115.125  1.00  0.00     0.010 A 
ATOM     19  C   UNL     1     116.378 158.599 116.342  1.00  0.00     0.010 A 
ATOM     20  C   UNL     1     115.603 155.928 116.067  1.00  0.00     0.001 A 
ATOM     21  C   UNL     1     116.788 157.650 117.280  1.00  0.00     0.001 A 
ATOM     22  C   UNL     1     116.404 156.316 117.141  1.00  0.00     0.000 A 
ENDBRANCH   7  17
TORSDOF 2
ENDMDL
MODEL 9
REMARK VINA RESULT:    -5.891      3.676      5.489
REMARK INTER + INTRA:          -6.779
REMARK INTER:                  -6.418
REMARK INTRA:                  -0.361
REMARK UNBOUND:                -0.372
REMARK SMILES CN1C(=O)C(O)N=C(c2ccccc2)c2cc(Cl)ccc21
REMARK SMILES IDX 1 1 2 2 3 3 4 4 5 5 7 6 8 7 15 8 16 9 17 10 18 11 19 12
REMARK SMILES IDX 20 13 21 14 6 15 9 17 10 18 14 19 11 20 13 21 12 22
REMARK H PARENT 6 16
ROOT
ATOM      1  C   UNL     1     111.529 159.689 115.087  1.00  0.00     0.153 C 
ATOM      2  N   UNL     1     112.941 159.967 114.850  1.00  0.00    -0.311 N 
ATOM      3  C   UNL     1     113.247 160.898 113.848  1.00  0.00     0.278 C 
ATOM      4  O   UNL     1     112.384 161.373 113.101  1.00  0.00    -0.269 OA
ATOM      5  C   UNL     1     114.728 161.364 113.749  1.00  0.00     0.323 C 
ATOM      6  N   UNL     1     115.467 160.274 113.133  1.00  0.00    -0.243 NA
ATOM      7  C   UNL     1     115.664 159.206 113.830  1.00  0.00     0.078 C 
ATOM      8  C   UNL     1     115.228 159.038 115.251  1.00  0.00     0.026 A 
ATOM      9  C   UNL     1     116.172 158.496 116.143  1.00  0.00     0.033 A 
ATOM     10  C   UNL     1     115.808 158.205 117.453  1.00  0.00     0.041 A 
ATOM     11  Cl  UNL     1     116.960 157.528 118.533  1.00  0.00    -0.084 Cl
ATOM     12  C   UNL     1     114.512 158.449 117.887  1.00  0.00     0.023 A 
ATOM     13  C   UNL     1     113.579 159.011 117.010  1.00  0.00     0.028 A 
ATOM     14  C   UNL     1     113.921 159.344 115.685  1.00  0.00     0.053 A 
ENDROOT
BRANCH   5  15
ATOM     15  O   UNL     1     114.819 162.564 112.999  1.00  0.00    -0.364 OA
ATOM     16  H   UNL     1     114.225 163.174 113.473  1.00  0.00     0.213 HD
ENDBRANCH   5  15
BRANCH   7  17
ATOM     17  C   UNL     1     116.380 158.074 113.159  1.00  0.00     0.000 A 
ATOM     18  C   UNL     1     115.888 156.773 113.316  1.00  0.00     0.010 A 
ATOM     19  C   UNL     1     117.541 158.292 112.407  1.00  0.00     0.010 A 
ATOM     20  C   UNL     1     116.536 155.701 112.702  1.00  0.00     0.001 A 
ATOM     21  C   UNL     1     118.186 157.215 111.794  1.00  0.00     0.001 A 
ATOM     22  C   UNL     1     117.682 155.923 111.939  1.00  0.00     0.000 A 
ENDBRANCH   7  17
TORSDOF 2
ENDMDL
