MODEL 1
REMARK VINA RESULT:    -7.546      0.000      0.000
REMARK INTER + INTRA:          -8.372
REMARK INTER:                  -7.987
REMARK INTRA:                  -0.385
REMARK UNBOUND:                -0.385
REMARK SMILES Cc1ncc2n1-c1ccc(Cl)cc1C(c1ccccc1F)=NC2
REMARK SMILES IDX 1 1 2 2 3 3 4 4 5 5 6 6 7 7 8 8 9 9 10 10 11 11 12 12 13 13
REMARK SMILES IDX 14 14 22 15 23 16 15 17 16 18 20 19 17 20 19 21 18 22 21 23
REMARK H PARENT
ROOT
ATOM      1  C   UNL     1     144.086  98.504 134.445  1.00  0.00     0.088 C 
ATOM      2  C   UNL     1     143.835  97.076 134.773  1.00  0.00     0.110 A 
ATOM      3  N   UNL     1     144.554  96.086 134.278  1.00  0.00    -0.241 NA
ATOM      4  C   UNL     1     144.141  94.961 134.928  1.00  0.00     0.137 A 
ATOM      5  C   UNL     1     143.135  95.253 135.816  1.00  0.00     0.064 A 
ATOM      6  N   UNL     1     142.910  96.610 135.704  1.00  0.00    -0.298 N 
ATOM      7  C   UNL     1     141.889  97.320 136.395  1.00  0.00     0.057 A 
ATOM      8  C   UNL     1     141.226  98.374 135.745  1.00  0.00     0.029 A 
ATOM      9  C   UNL     1     140.183  99.054 136.377  1.00  0.00     0.023 A 
ATOM     10  C   UNL     1     139.787  98.679 137.656  1.00  0.00     0.041 A 
ATOM     11  Cl  UNL     1     138.496  99.512 138.428  1.00  0.00    -0.084 Cl
ATOM     12  C   UNL     1     140.429  97.634 138.315  1.00  0.00     0.033 A 
ATOM     13  C   UNL     1     141.490  96.949 137.696  1.00  0.00     0.026 A 
ATOM     14  C   UNL     1     142.196  95.906 138.509  1.00  0.00     0.077 C 
ATOM     15  N   UNL     1     142.593  94.756 138.083  1.00  0.00    -0.278 NA
ATOM     16  C   UNL     1     142.343  94.380 136.703  1.00  0.00     0.198 C 
ENDROOT
BRANCH  14  17
ATOM     17  C   UNL     1     142.499  96.233 139.926  1.00  0.00     0.036 A 
ATOM     18  C   UNL     1     141.523  96.029 140.909  1.00  0.00     0.013 A 
ATOM     19  C   UNL     1     143.745  96.752 140.272  1.00  0.00     0.132 A 
ATOM     20  C   UNL     1     141.811  96.344 142.238  1.00  0.00     0.001 A 
ATOM     21  C   UNL     1     144.031  97.064 141.598  1.00  0.00     0.040 A 
ATOM     22  C   UNL     1     143.063  96.860 142.583  1.00  0.00     0.003 A 
ATOM     23  F   UNL     1     144.705  96.917 139.350  1.00  0.00    -0.206 F 
ENDBRANCH  14  17
TORSDOF 1
ENDMDL
MODEL 2
REMARK VINA RESULT:    -7.405      2.691      4.321
REMARK INTER + INTRA:          -8.223
REMARK INTER:                  -9.098
REMARK INTRA:                   0.875
REMARK UNBOUND:                -0.385
REMARK SMILES Cc1ncc2n1-c1ccc(Cl)cc1C(c1ccccc1F)=NC2
REMARK SMILES IDX 1 1 2 2 3 3 4 4 5 5 6 6 7 7 8 8 9 9 10 10 11 11 12 12 13 13
REMARK SMILES IDX 14 14 22 15 23 16 15 17 16 18 20 19 17 20 19 21 18 22 21 23
REMARK H PARENT
ROOT
ATOM      1  C   UNL     1     140.665  98.025 137.730  1.00  0.00     0.088 C 
ATOM      2  C   UNL     1     141.974  97.358 137.503  1.00  0.00     0.110 A 
ATOM      3  N   UNL     1     142.574  97.329 136.327  1.00  0.00    -0.241 NA
ATOM      4  C   UNL     1     143.805  96.786 136.548  1.00  0.00     0.137 A 
ATOM      5  C   UNL     1     143.959  96.449 137.870  1.00  0.00     0.064 A 
ATOM      6  N   UNL     1     142.774  96.787 138.490  1.00  0.00    -0.298 N 
ATOM      7  C   UNL     1     142.476  96.532 139.858  1.00  0.00     0.057 A 
ATOM      8  C   UNL     1     141.168  96.170 140.218  1.00  0.00     0.029 A 
ATOM      9  C   UNL     1     140.857  95.862 141.544  1.00  0.00     0.023 A 
ATOM     10  C   UNL     1     141.850  95.901 142.515  1.00  0.00     0.041 A 
ATOM     11  Cl  UNL     1     141.467  95.510 144.146  1.00  0.00    -0.084 Cl
ATOM     12  C   UNL     1     143.154  96.253 142.177  1.00  0.00     0.033 A 
ATOM     13  C   UNL     1     143.479  96.579 140.848  1.00  0.00     0.026 A 
ATOM     14  C   UNL     1     144.878  97.048 140.582  1.00  0.00     0.077 C 
ATOM     15  N   UNL     1     145.606  96.718 139.572  1.00  0.00    -0.278 NA
ATOM     16  C   UNL     1     145.078  95.800 138.579  1.00  0.00     0.198 C 
ENDROOT
BRANCH  14  17
ATOM     17  C   UNL     1     145.474  98.004 141.550  1.00  0.00     0.036 A 
ATOM     18  C   UNL     1     144.722  98.443 142.646  1.00  0.00     0.013 A 
ATOM     19  C   UNL     1     146.774  98.472 141.359  1.00  0.00     0.132 A 
ATOM     20  C   UNL     1     145.285  99.347 143.548  1.00  0.00     0.001 A 
ATOM     21  C   UNL     1     147.335  99.372 142.261  1.00  0.00     0.040 A 
ATOM     22  C   UNL     1     146.589  99.810 143.357  1.00  0.00     0.003 A 
ATOM     23  F   UNL     1     147.523  98.032 140.337  1.00  0.00    -0.206 F 
ENDBRANCH  14  17
TORSDOF 1
ENDMDL
MODEL 3
REMARK VINA RESULT:    -7.254      3.348      5.033
REMARK INTER + INTRA:          -8.063
REMARK INTER:                  -7.706
REMARK INTRA:                  -0.356
REMARK UNBOUND:                -0.385
REMARK SMILES Cc1ncc2n1-c1ccc(Cl)cc1C(c1ccccc1F)=NC2
REMARK SMILES IDX 1 1 2 2 3 3 4 4 5 5 6 6 7 7 8 8 9 9 10 10 11 11 12 12 13 13
REMARK SMILES IDX 14 14 22 15 23 16 15 17 16 18 20 19 17 20 19 21 18 22 21 23
REMARK H PARENT
ROOT
ATOM      1  C   UNL     1     138.224  95.752 133.288  1.00  0.00     0.088 C 
ATOM      2  C   UNL     1     139.059  96.979 133.382  1.00  0.00     0.110 A 
ATOM      3  N   UNL     1     138.566  98.197 133.256  1.00  0.00    -0.241 NA
ATOM      4  C   UNL     1     139.585  99.047 133.565  1.00  0.00     0.137 A 
ATOM      5  C   UNL     1     140.731  98.349 133.859  1.00  0.00     0.064 A 
ATOM      6  N   UNL     1     140.410  97.015 133.717  1.00  0.00    -0.298 N 
ATOM      7  C   UNL     1     141.335  95.942 133.852  1.00  0.00     0.057 A 
ATOM      8  C   UNL     1     141.215  94.823 133.012  1.00  0.00     0.029 A 
ATOM      9  C   UNL     1     142.140  93.779 133.085  1.00  0.00     0.023 A 
ATOM     10  C   UNL     1     143.196  93.851 133.986  1.00  0.00     0.041 A 
ATOM     11  Cl  UNL     1     144.339  92.568 134.065  1.00  0.00    -0.084 Cl
ATOM     12  C   UNL     1     143.334  94.954 134.823  1.00  0.00     0.033 A 
ATOM     13  C   UNL     1     142.403  96.007 134.771  1.00  0.00     0.026 A 
ATOM     14  C   UNL     1     142.562  97.109 135.774  1.00  0.00     0.077 C 
ATOM     15  N   UNL     1     142.417  98.369 135.543  1.00  0.00    -0.278 NA
ATOM     16  C   UNL     1     142.088  98.816 134.202  1.00  0.00     0.198 C 
ENDROOT
BRANCH  14  17
ATOM     17  C   UNL     1     142.882  96.721 137.172  1.00  0.00     0.036 A 
ATOM     18  C   UNL     1     144.208  96.453 137.531  1.00  0.00     0.013 A 
ATOM     19  C   UNL     1     141.864  96.611 138.117  1.00  0.00     0.132 A 
ATOM     20  C   UNL     1     144.503  96.083 138.845  1.00  0.00     0.001 A 
ATOM     21  C   UNL     1     142.159  96.243 139.427  1.00  0.00     0.040 A 
ATOM     22  C   UNL     1     143.481  95.979 139.791  1.00  0.00     0.003 A 
ATOM     23  F   UNL     1     140.594  96.902 137.801  1.00  0.00    -0.206 F 
ENDBRANCH  14  17
TORSDOF 1
ENDMDL
MODEL 4
REMARK VINA RESULT:    -7.055      3.009      6.482
REMARK INTER + INTRA:          -7.852
REMARK INTER:                  -7.267
REMARK INTRA:                  -0.585
REMARK UNBOUND:                -0.385
REMARK SMILES Cc1ncc2n1-c1ccc(Cl)cc1C(c1ccccc1F)=NC2
REMARK SMILES IDX 1 1 2 2 3 3 4 4 5 5 6 6 7 7 8 8 9 9 10 10 11 11 12 12 13 13
REMARK SMILES IDX 14 14 22 15 23 16 15 17 16 18 20 19 17 20 19 21 18 22 21 23
REMARK H PARENT
ROOT
ATOM      1  C   UNL     1     141.794  98.304 143.909  1.00  0.00     0.088 C 
ATOM      2  C   UNL     1     141.746  96.924 143.358  1.00  0.00     0.110 A 
ATOM      3  N   UNL     1     140.771  96.075 143.624  1.00  0.00    -0.241 NA
ATOM      4  C   UNL     1     140.985  94.996 142.820  1.00  0.00     0.137 A 
ATOM      5  C   UNL     1     142.122  95.165 142.068  1.00  0.00     0.064 A 
ATOM      6  N   UNL     1     142.636  96.393 142.427  1.00  0.00    -0.298 N 
ATOM      7  C   UNL     1     143.861  96.930 141.942  1.00  0.00     0.057 A 
ATOM      8  C   UNL     1     144.672  97.680 142.809  1.00  0.00     0.029 A 
ATOM      9  C   UNL     1     145.905  98.174 142.377  1.00  0.00     0.023 A 
ATOM     10  C   UNL     1     146.342  97.912 141.084  1.00  0.00     0.041 A 
ATOM     11  Cl  UNL     1     147.865  98.512 140.559  1.00  0.00    -0.084 Cl
ATOM     12  C   UNL     1     145.554  97.166 140.212  1.00  0.00     0.033 A 
ATOM     13  C   UNL     1     144.304  96.674 140.628  1.00  0.00     0.026 A 
ATOM     14  C   UNL     1     143.471  95.968 139.600  1.00  0.00     0.077 C 
ATOM     15  N   UNL     1     142.779  94.899 139.793  1.00  0.00    -0.278 NA
ATOM     16  C   UNL     1     142.784  94.269 141.101  1.00  0.00     0.198 C 
ENDROOT
BRANCH  14  17
ATOM     17  C   UNL     1     143.407  96.569 138.243  1.00  0.00     0.036 A 
ATOM     18  C   UNL     1     142.488  97.591 137.979  1.00  0.00     0.013 A 
ATOM     19  C   UNL     1     144.249  96.106 137.233  1.00  0.00     0.132 A 
ATOM     20  C   UNL     1     142.426  98.147 136.700  1.00  0.00     0.001 A 
ATOM     21  C   UNL     1     144.189  96.662 135.959  1.00  0.00     0.040 A 
ATOM     22  C   UNL     1     143.276  97.684 135.692  1.00  0.00     0.003 A 
ATOM     23  F   UNL     1     145.163  95.155 137.479  1.00  0.00    -0.206 F 
ENDBRANCH  14  17
TORSDOF 1
ENDMDL
MODEL 5
REMARK VINA RESULT:    -6.918      3.407      6.261
REMARK INTER + INTRA:          -7.707
REMARK INTER:                  -7.072
REMARK INTRA:                  -0.635
REMARK UNBOUND:                -0.385
REMARK SMILES Cc1ncc2n1-c1ccc(Cl)cc1C(c1ccccc1F)=NC2
REMARK SMILES IDX 1 1 2 2 3 3 4 4 5 5 6 6 7 7 8 8 9 9 10 10 11 11 12 12 13 13
REMARK SMILES IDX 14 14 22 15 23 16 15 17 16 18 20 19 17 20 19 21 18 22 21 23
REMARK H PARENT
ROOT
ATOM      1  C   UNL     1     145.089  94.284 135.727  1.00  0.00     0.088 C 
ATOM      2  C   UNL     1     145.257  95.254 134.613  1.00  0.00     0.110 A 
ATOM      3  N   UNL     1     146.202  95.143 133.697  1.00  0.00    -0.241 NA
ATOM      4  C   UNL     1     145.936  96.102 132.766  1.00  0.00     0.137 A 
ATOM      5  C   UNL     1     144.829  96.834 133.123  1.00  0.00     0.064 A 
ATOM      6  N   UNL     1     144.400  96.314 134.326  1.00  0.00    -0.298 N 
ATOM      7  C   UNL     1     143.321  96.835 135.093  1.00  0.00     0.057 A 
ATOM      8  C   UNL     1     143.410  96.829 136.494  1.00  0.00     0.029 A 
ATOM      9  C   UNL     1     142.391  97.382 137.272  1.00  0.00     0.023 A 
ATOM     10  C   UNL     1     141.283  97.954 136.658  1.00  0.00     0.041 A 
ATOM     11  Cl  UNL     1     140.035  98.644 137.618  1.00  0.00    -0.084 Cl
ATOM     12  C   UNL     1     141.179  97.973 135.269  1.00  0.00     0.033 A 
ATOM     13  C   UNL     1     142.192  97.408 134.474  1.00  0.00     0.026 A 
ATOM     14  C   UNL     1     141.958  97.376 132.993  1.00  0.00     0.077 C 
ATOM     15  N   UNL     1     142.836  97.625 132.083  1.00  0.00    -0.278 NA
ATOM     16  C   UNL     1     144.185  97.992 132.474  1.00  0.00     0.198 C 
ENDROOT
BRANCH  14  17
ATOM     17  C   UNL     1     140.603  96.990 132.523  1.00  0.00     0.036 A 
ATOM     18  C   UNL     1     140.197  95.653 132.596  1.00  0.00     0.013 A 
ATOM     19  C   UNL     1     139.744  97.956 131.999  1.00  0.00     0.132 A 
ATOM     20  C   UNL     1     138.924  95.295 132.146  1.00  0.00     0.001 A 
ATOM     21  C   UNL     1     138.475  97.598 131.552  1.00  0.00     0.040 A 
ATOM     22  C   UNL     1     138.065  96.266 131.626  1.00  0.00     0.003 A 
ATOM     23  F   UNL     1     140.101  99.247 131.958  1.00  0.00    -0.206 F 
ENDBRANCH  14  17
TORSDOF 1
ENDMDL
MODEL 6
REMARK VINA RESULT:    -6.902      3.179      4.757
REMARK INTER + INTRA:          -7.690
REMARK INTER:                  -7.096
REMARK INTRA:                  -0.594
REMARK UNBOUND:                -0.385
REMARK SMILES Cc1ncc2n1-c1ccc(Cl)cc1C(c1ccccc1F)=NC2
REMARK SMILES IDX 1 1 2 2 3 3 4 4 5 5 6 6 7 7 8 8 9 9 10 10 11 11 12 12 13 13
REMARK SMILES IDX 14 14 22 15 23 16 15 17 16 18 20 19 17 20 19 21 18 22 21 23
REMARK H PARENT
ROOT
ATOM      1  C   UNL     1     141.168  93.844 132.899  1.00  0.00     0.088 C 
ATOM      2  C   UNL     1     141.317  95.281 133.251  1.00  0.00     0.110 A 
ATOM      3  N   UNL     1     140.436  96.202 132.909  1.00  0.00    -0.241 NA
ATOM      4  C   UNL     1     140.822  97.345 133.542  1.00  0.00     0.137 A 
ATOM      5  C   UNL     1     141.973  97.138 134.263  1.00  0.00     0.064 A 
ATOM      6  N   UNL     1     142.316  95.817 134.060  1.00  0.00    -0.298 N 
ATOM      7  C   UNL     1     143.496  95.201 134.565  1.00  0.00     0.057 A 
ATOM      8  C   UNL     1     144.159  94.244 133.780  1.00  0.00     0.029 A 
ATOM      9  C   UNL     1     145.348  93.662 134.226  1.00  0.00     0.023 A 
ATOM     10  C   UNL     1     145.888  94.040 135.450  1.00  0.00     0.041 A 
ATOM     11  Cl  UNL     1     147.357  93.329 135.991  1.00  0.00    -0.084 Cl
ATOM     12  C   UNL     1     145.247  94.991 136.240  1.00  0.00     0.033 A 
ATOM     13  C   UNL     1     144.042  95.575 135.810  1.00  0.00     0.026 A 
ATOM     14  C   UNL     1     143.360  96.512 136.762  1.00  0.00     0.077 C 
ATOM     15  N   UNL     1     142.790  97.624 136.449  1.00  0.00    -0.278 NA
ATOM     16  C   UNL     1     142.793  98.065 135.066  1.00  0.00     0.198 C 
ENDROOT
BRANCH  14  17
ATOM     17  C   UNL     1     143.304  96.114 138.191  1.00  0.00     0.036 A 
ATOM     18  C   UNL     1     143.969  96.883 139.153  1.00  0.00     0.013 A 
ATOM     19  C   UNL     1     142.603  94.970 138.571  1.00  0.00     0.132 A 
ATOM     20  C   UNL     1     143.919  96.501 140.495  1.00  0.00     0.001 A 
ATOM     21  C   UNL     1     142.552  94.591 139.910  1.00  0.00     0.040 A 
ATOM     22  C   UNL     1     143.211  95.357 140.873  1.00  0.00     0.003 A 
ATOM     23  F   UNL     1     141.928  94.243 137.670  1.00  0.00    -0.206 F 
ENDBRANCH  14  17
TORSDOF 1
ENDMDL
MODEL 7
REMARK VINA RESULT:    -6.888      3.751      5.519
REMARK INTER + INTRA:          -7.676
REMARK INTER:                  -7.059
REMARK INTRA:                  -0.617
REMARK UNBOUND:                -0.385
REMARK SMILES Cc1ncc2n1-c1ccc(Cl)cc1C(c1ccccc1F)=NC2
REMARK SMILES IDX 1 1 2 2 3 3 4 4 5 5 6 6 7 7 8 8 9 9 10 10 11 11 12 12 13 13
REMARK SMILES IDX 14 14 22 15 23 16 15 17 16 18 20 19 17 20 19 21 18 22 21 23
REMARK H PARENT
ROOT
ATOM      1  C   UNL     1     139.737  95.693 130.907  1.00  0.00     0.088 C 
ATOM      2  C   UNL     1     139.622  96.952 131.688  1.00  0.00     0.110 A 
ATOM      3  N   UNL     1     138.507  97.655 131.763  1.00  0.00    -0.241 NA
ATOM      4  C   UNL     1     138.739  98.629 132.687  1.00  0.00     0.137 A 
ATOM      5  C   UNL     1     140.023  98.547 133.170  1.00  0.00     0.064 A 
ATOM      6  N   UNL     1     140.610  97.487 132.512  1.00  0.00    -0.298 N 
ATOM      7  C   UNL     1     141.972  97.100 132.655  1.00  0.00     0.057 A 
ATOM      8  C   UNL     1     142.672  96.627 131.534  1.00  0.00     0.029 A 
ATOM      9  C   UNL     1     144.024  96.291 131.632  1.00  0.00     0.023 A 
ATOM     10  C   UNL     1     144.688  96.436 132.845  1.00  0.00     0.041 A 
ATOM     11  Cl  UNL     1     146.355  96.031 132.960  1.00  0.00    -0.084 Cl
ATOM     12  C   UNL     1     144.011  96.907 133.967  1.00  0.00     0.033 A 
ATOM     13  C   UNL     1     142.646  97.237 133.886  1.00  0.00     0.026 A 
ATOM     14  C   UNL     1     141.965  97.639 135.160  1.00  0.00     0.077 C 
ATOM     15  N   UNL     1     141.109  98.593 135.291  1.00  0.00    -0.278 NA
ATOM     16  C   UNL     1     140.750  99.394 134.135  1.00  0.00     0.198 C 
ENDROOT
BRANCH  14  17
ATOM     17  C   UNL     1     142.273  96.849 136.379  1.00  0.00     0.036 A 
ATOM     18  C   UNL     1     142.969  97.447 137.437  1.00  0.00     0.013 A 
ATOM     19  C   UNL     1     141.883  95.513 136.464  1.00  0.00     0.132 A 
ATOM     20  C   UNL     1     143.263  96.699 138.578  1.00  0.00     0.001 A 
ATOM     21  C   UNL     1     142.175  94.768 137.603  1.00  0.00     0.040 A 
ATOM     22  C   UNL     1     142.865  95.362 138.662  1.00  0.00     0.003 A 
ATOM     23  F   UNL     1     141.182  94.935 135.478  1.00  0.00    -0.206 F 
ENDBRANCH  14  17
TORSDOF 1
ENDMDL
MODEL 8
REMARK VINA RESULT:    -6.571      3.830      6.303
REMARK INTER + INTRA:          -7.340
REMARK INTER:                  -6.808
REMARK INTRA:                  -0.532
REMARK UNBOUND:                -0.385
REMARK SMILES Cc1ncc2n1-c1ccc(Cl)cc1C(c1ccccc1F)=NC2
REMARK SMILES IDX 1 1 2 2 3 3 4 4 5 5 6 6 7 7 8 8 9 9 10 10 11 11 12 12 13 13
REMARK SMILES IDX 14 14 22 15 23 16 15 17 16 18 20 19 17 20 19 21 18 22 21 23
REMARK H PARENT
ROOT
ATOM      1  C   UNL     1     146.185  94.678 134.676  1.00  0.00     0.088 C 
ATOM      2  C   UNL     1     145.227  94.963 135.777  1.00  0.00     0.110 A 
ATOM      3  N   UNL     1     145.607  95.352 136.980  1.00  0.00    -0.241 NA
ATOM      4  C   UNL     1     144.464  95.671 137.650  1.00  0.00     0.137 A 
ATOM      5  C   UNL     1     143.360  95.450 136.862  1.00  0.00     0.064 A 
ATOM      6  N   UNL     1     143.839  94.967 135.663  1.00  0.00    -0.298 N 
ATOM      7  C   UNL     1     143.022  94.532 134.582  1.00  0.00     0.057 A 
ATOM      8  C   UNL     1     143.431  93.430 133.813  1.00  0.00     0.029 A 
ATOM      9  C   UNL     1     142.625  92.947 132.781  1.00  0.00     0.023 A 
ATOM     10  C   UNL     1     141.401  93.551 132.517  1.00  0.00     0.041 A 
ATOM     11  Cl  UNL     1     140.405  92.947 131.252  1.00  0.00    -0.084 Cl
ATOM     12  C   UNL     1     140.976  94.641 133.272  1.00  0.00     0.033 A 
ATOM     13  C   UNL     1     141.784  95.147 134.306  1.00  0.00     0.026 A 
ATOM     14  C   UNL     1     141.304  96.385 135.003  1.00  0.00     0.077 C 
ATOM     15  N   UNL     1     141.364  96.609 136.271  1.00  0.00    -0.278 NA
ATOM     16  C   UNL     1     141.921  95.598 137.150  1.00  0.00     0.198 C 
ENDROOT
BRANCH  14  17
ATOM     17  C   UNL     1     140.738  97.469 134.160  1.00  0.00     0.036 A 
ATOM     18  C   UNL     1     141.586  98.444 133.621  1.00  0.00     0.013 A 
ATOM     19  C   UNL     1     139.366  97.523 133.919  1.00  0.00     0.132 A 
ATOM     20  C   UNL     1     141.048  99.464 132.835  1.00  0.00     0.001 A 
ATOM     21  C   UNL     1     138.831  98.540 133.134  1.00  0.00     0.040 A 
ATOM     22  C   UNL     1     139.673  99.512 132.591  1.00  0.00     0.003 A 
ATOM     23  F   UNL     1     138.545  96.576 134.395  1.00  0.00    -0.206 F 
ENDBRANCH  14  17
TORSDOF 1
ENDMDL
MODEL 9
REMARK VINA RESULT:    -6.557      5.076      6.803
REMARK INTER + INTRA:          -7.325
REMARK INTER:                  -6.848
REMARK INTRA:                  -0.476
REMARK UNBOUND:                -0.385
REMARK SMILES Cc1ncc2n1-c1ccc(Cl)cc1C(c1ccccc1F)=NC2
REMARK SMILES IDX 1 1 2 2 3 3 4 4 5 5 6 6 7 7 8 8 9 9 10 10 11 11 12 12 13 13
REMARK SMILES IDX 14 14 22 15 23 16 15 17 16 18 20 19 17 20 19 21 18 22 21 23
REMARK H PARENT
ROOT
ATOM      1  C   UNL     1     139.537  93.044 130.349  1.00  0.00     0.088 C 
ATOM      2  C   UNL     1     138.813  94.339 130.439  1.00  0.00     0.110 A 
ATOM      3  N   UNL     1     137.531  94.470 130.151  1.00  0.00    -0.241 NA
ATOM      4  C   UNL     1     137.195  95.742 130.508  1.00  0.00     0.137 A 
ATOM      5  C   UNL     1     138.288  96.417 130.996  1.00  0.00     0.064 A 
ATOM      6  N   UNL     1     139.343  95.530 130.930  1.00  0.00    -0.298 N 
ATOM      7  C   UNL     1     140.688  95.849 131.265  1.00  0.00     0.057 A 
ATOM      8  C   UNL     1     141.734  95.286 130.515  1.00  0.00     0.029 A 
ATOM      9  C   UNL     1     143.062  95.622 130.785  1.00  0.00     0.023 A 
ATOM     10  C   UNL     1     143.354  96.529 131.798  1.00  0.00     0.041 A 
ATOM     11  Cl  UNL     1     144.990  96.948 132.122  1.00  0.00    -0.084 Cl
ATOM     12  C   UNL     1     142.331  97.100 132.549  1.00  0.00     0.033 A 
ATOM     13  C   UNL     1     140.990  96.761 132.297  1.00  0.00     0.026 A 
ATOM     14  C   UNL     1     139.955  97.339 133.215  1.00  0.00     0.077 C 
ATOM     15  N   UNL     1     138.807  97.805 132.862  1.00  0.00    -0.278 NA
ATOM     16  C   UNL     1     138.438  97.809 131.458  1.00  0.00     0.198 C 
ENDROOT
BRANCH  14  17
ATOM     17  C   UNL     1     140.260  97.350 134.668  1.00  0.00     0.036 A 
ATOM     18  C   UNL     1     140.522  96.145 135.332  1.00  0.00     0.013 A 
ATOM     19  C   UNL     1     140.272  98.553 135.371  1.00  0.00     0.132 A 
ATOM     20  C   UNL     1     140.801  96.159 136.700  1.00  0.00     0.001 A 
ATOM     21  C   UNL     1     140.553  98.567 136.735  1.00  0.00     0.040 A 
ATOM     22  C   UNL     1     140.818  97.368 137.400  1.00  0.00     0.003 A 
ATOM     23  F   UNL     1     140.063  99.720 134.745  1.00  0.00    -0.206 F 
ENDBRANCH  14  17
TORSDOF 1
ENDMDL
