MODEL 1
REMARK VINA RESULT:   -10.575      0.000      0.000
REMARK INTER + INTRA:         -11.585
REMARK INTER:                 -11.193
REMARK INTRA:                  -0.392
REMARK UNBOUND:                -0.392
REMARK SMILES Cc1nnc2n1-c1ccc(Cl)cc1C(c1ccccc1)=NC2
REMARK SMILES IDX 1 1 2 2 3 3 4 4 5 5 6 6 7 7 8 8 9 9 10 10 11 11 12 12 13 13
REMARK SMILES IDX 14 14 21 15 22 16 15 17 16 18 20 19 17 20 19 21 18 22
REMARK H PARENT
ROOT
ATOM      1  C   UNL     1     115.450 160.729 112.995  1.00  0.00     0.090 C 
ATOM      2  C   UNL     1     116.677 160.818 112.170  1.00  0.00     0.134 A 
ATOM      3  N   UNL     1     117.146 161.938 111.658  1.00  0.00    -0.135 NA
ATOM      4  N   UNL     1     118.196 161.632 110.840  1.00  0.00    -0.133 NA
ATOM      5  C   UNL     1     118.360 160.327 110.865  1.00  0.00     0.159 A 
ATOM      6  N   UNL     1     117.450 159.755 111.726  1.00  0.00    -0.281 N 
ATOM      7  C   UNL     1     117.424 158.387 112.103  1.00  0.00     0.058 A 
ATOM      8  C   UNL     1     117.083 158.045 113.422  1.00  0.00     0.029 A 
ATOM      9  C   UNL     1     117.142 156.714 113.847  1.00  0.00     0.023 A 
ATOM     10  C   UNL     1     117.552 155.722 112.964  1.00  0.00     0.041 A 
ATOM     11  Cl  UNL     1     117.641 154.089 113.496  1.00  0.00    -0.084 Cl
ATOM     12  C   UNL     1     117.890 156.042 111.652  1.00  0.00     0.033 A 
ATOM     13  C   UNL     1     117.810 157.373 111.202  1.00  0.00     0.026 A 
ATOM     14  C   UNL     1     118.074 157.615 109.746  1.00  0.00     0.075 C 
ATOM     15  N   UNL     1     118.804 158.569 109.277  1.00  0.00    -0.276 NA
ATOM     16  C   UNL     1     119.409 159.542 110.174  1.00  0.00     0.220 C 
ENDROOT
BRANCH  14  17
ATOM     17  C   UNL     1     117.448 156.689 108.745  1.00  0.00     0.000 A 
ATOM     18  C   UNL     1     118.236 156.182 107.704  1.00  0.00     0.010 A 
ATOM     19  C   UNL     1     116.090 156.353 108.816  1.00  0.00     0.010 A 
ATOM     20  C   UNL     1     117.677 155.321 106.760  1.00  0.00     0.001 A 
ATOM     21  C   UNL     1     115.537 155.489 107.867  1.00  0.00     0.001 A 
ATOM     22  C   UNL     1     116.330 154.971 106.844  1.00  0.00     0.000 A 
ENDBRANCH  14  17
TORSDOF 1
ENDMDL
MODEL 2
REMARK VINA RESULT:    -9.125      2.913      6.385
REMARK INTER + INTRA:         -10.050
REMARK INTER:                 -10.361
REMARK INTRA:                   0.312
REMARK UNBOUND:                -0.392
REMARK SMILES Cc1nnc2n1-c1ccc(Cl)cc1C(c1ccccc1)=NC2
REMARK SMILES IDX 1 1 2 2 3 3 4 4 5 5 6 6 7 7 8 8 9 9 10 10 11 11 12 12 13 13
REMARK SMILES IDX 14 14 21 15 22 16 15 17 16 18 20 19 17 20 19 21 18 22
REMARK H PARENT
ROOT
ATOM      1  C   UNL     1     117.475 156.474 106.441  1.00  0.00     0.090 C 
ATOM      2  C   UNL     1     117.553 156.187 107.893  1.00  0.00     0.134 A 
ATOM      3  N   UNL     1     116.848 155.255 108.502  1.00  0.00    -0.135 NA
ATOM      4  N   UNL     1     117.058 155.367 109.847  1.00  0.00    -0.133 NA
ATOM      5  C   UNL     1     117.893 156.364 110.045  1.00  0.00     0.159 A 
ATOM      6  N   UNL     1     118.277 156.901 108.836  1.00  0.00    -0.281 N 
ATOM      7  C   UNL     1     119.270 157.900 108.660  1.00  0.00     0.058 A 
ATOM      8  C   UNL     1     120.119 157.834 107.543  1.00  0.00     0.029 A 
ATOM      9  C   UNL     1     121.166 158.749 107.395  1.00  0.00     0.023 A 
ATOM     10  C   UNL     1     121.381 159.722 108.364  1.00  0.00     0.041 A 
ATOM     11  Cl  UNL     1     122.681 160.832 108.187  1.00  0.00    -0.084 Cl
ATOM     12  C   UNL     1     120.547 159.804 109.476  1.00  0.00     0.033 A 
ATOM     13  C   UNL     1     119.472 158.908 109.625  1.00  0.00     0.026 A 
ATOM     14  C   UNL     1     118.551 159.139 110.786  1.00  0.00     0.075 C 
ATOM     15  N   UNL     1     118.106 158.217 111.570  1.00  0.00    -0.276 NA
ATOM     16  C   UNL     1     118.451 156.822 111.337  1.00  0.00     0.220 C 
ENDROOT
BRANCH  14  17
ATOM     17  C   UNL     1     118.102 160.542 111.071  1.00  0.00     0.000 A 
ATOM     18  C   UNL     1     117.018 160.746 111.934  1.00  0.00     0.010 A 
ATOM     19  C   UNL     1     118.726 161.641 110.467  1.00  0.00     0.010 A 
ATOM     20  C   UNL     1     116.581 162.041 112.213  1.00  0.00     0.001 A 
ATOM     21  C   UNL     1     118.284 162.936 110.752  1.00  0.00     0.001 A 
ATOM     22  C   UNL     1     117.216 163.135 111.626  1.00  0.00     0.000 A 
ENDBRANCH  14  17
TORSDOF 1
ENDMDL
MODEL 3
REMARK VINA RESULT:    -8.544      2.014      4.906
REMARK INTER + INTRA:          -9.435
REMARK INTER:                  -8.933
REMARK INTRA:                  -0.502
REMARK UNBOUND:                -0.392
REMARK SMILES Cc1nnc2n1-c1ccc(Cl)cc1C(c1ccccc1)=NC2
REMARK SMILES IDX 1 1 2 2 3 3 4 4 5 5 6 6 7 7 8 8 9 9 10 10 11 11 12 12 13 13
REMARK SMILES IDX 14 14 21 15 22 16 15 17 16 18 20 19 17 20 19 21 18 22
REMARK H PARENT
ROOT
ATOM      1  C   UNL     1     120.815 157.982 107.879  1.00  0.00     0.090 C 
ATOM      2  C   UNL     1     120.019 158.879 108.749  1.00  0.00     0.134 A 
ATOM      3  N   UNL     1     120.461 160.020 109.238  1.00  0.00    -0.135 NA
ATOM      4  N   UNL     1     119.528 160.506 110.108  1.00  0.00    -0.133 NA
ATOM      5  C   UNL     1     118.523 159.658 110.139  1.00  0.00     0.159 A 
ATOM      6  N   UNL     1     118.757 158.621 109.263  1.00  0.00    -0.281 N 
ATOM      7  C   UNL     1     117.829 157.598 108.936  1.00  0.00     0.058 A 
ATOM      8  C   UNL     1     117.775 157.116 107.617  1.00  0.00     0.029 A 
ATOM      9  C   UNL     1     116.809 156.177 107.245  1.00  0.00     0.023 A 
ATOM     10  C   UNL     1     115.883 155.726 108.179  1.00  0.00     0.041 A 
ATOM     11  Cl  UNL     1     114.684 154.586 107.712  1.00  0.00    -0.084 Cl
ATOM     12  C   UNL     1     115.924 156.190 109.491  1.00  0.00     0.033 A 
ATOM     13  C   UNL     1     116.909 157.114 109.888  1.00  0.00     0.026 A 
ATOM     14  C   UNL     1     116.959 157.470 111.344  1.00  0.00     0.075 C 
ATOM     15  N   UNL     1     117.094 158.666 111.806  1.00  0.00    -0.276 NA
ATOM     16  C   UNL     1     117.259 159.792 110.899  1.00  0.00     0.220 C 
ENDROOT
BRANCH  14  17
ATOM     17  C   UNL     1     116.846 156.365 112.352  1.00  0.00     0.000 A 
ATOM     18  C   UNL     1     115.705 156.298 113.161  1.00  0.00     0.010 A 
ATOM     19  C   UNL     1     117.872 155.426 112.518  1.00  0.00     0.010 A 
ATOM     20  C   UNL     1     115.577 155.281 114.108  1.00  0.00     0.001 A 
ATOM     21  C   UNL     1     117.737 154.409 113.468  1.00  0.00     0.001 A 
ATOM     22  C   UNL     1     116.590 154.335 114.257  1.00  0.00     0.000 A 
ENDBRANCH  14  17
TORSDOF 1
ENDMDL
MODEL 4
REMARK VINA RESULT:    -7.533      4.001      5.948
REMARK INTER + INTRA:          -8.365
REMARK INTER:                  -8.083
REMARK INTRA:                  -0.282
REMARK UNBOUND:                -0.392
REMARK SMILES Cc1nnc2n1-c1ccc(Cl)cc1C(c1ccccc1)=NC2
REMARK SMILES IDX 1 1 2 2 3 3 4 4 5 5 6 6 7 7 8 8 9 9 10 10 11 11 12 12 13 13
REMARK SMILES IDX 14 14 21 15 22 16 15 17 16 18 20 19 17 20 19 21 18 22
REMARK H PARENT
ROOT
ATOM      1  C   UNL     1     117.002 156.504 118.272  1.00  0.00     0.090 C 
ATOM      2  C   UNL     1     116.189 155.688 117.341  1.00  0.00     0.134 A 
ATOM      3  N   UNL     1     115.943 154.403 117.503  1.00  0.00    -0.135 NA
ATOM      4  N   UNL     1     115.295 153.944 116.391  1.00  0.00    -0.133 NA
ATOM      5  C   UNL     1     115.148 154.956 115.563  1.00  0.00     0.159 A 
ATOM      6  N   UNL     1     115.660 156.103 116.128  1.00  0.00    -0.281 N 
ATOM      7  C   UNL     1     115.553 157.407 115.577  1.00  0.00     0.058 A 
ATOM      8  C   UNL     1     115.359 158.501 116.436  1.00  0.00     0.029 A 
ATOM      9  C   UNL     1     115.156 159.783 115.917  1.00  0.00     0.023 A 
ATOM     10  C   UNL     1     115.130 159.978 114.541  1.00  0.00     0.041 A 
ATOM     11  Cl  UNL     1     114.860 161.553 113.906  1.00  0.00    -0.084 Cl
ATOM     12  C   UNL     1     115.323 158.906 113.674  1.00  0.00     0.033 A 
ATOM     13  C   UNL     1     115.557 157.614 114.182  1.00  0.00     0.026 A 
ATOM     14  C   UNL     1     115.875 156.539 113.186  1.00  0.00     0.075 C 
ATOM     15  N   UNL     1     115.373 155.352 113.197  1.00  0.00    -0.276 NA
ATOM     16  C   UNL     1     114.457 154.949 114.254  1.00  0.00     0.220 C 
ENDROOT
BRANCH  14  17
ATOM     17  C   UNL     1     116.850 156.850 112.089  1.00  0.00     0.000 A 
ATOM     18  C   UNL     1     116.636 156.305 110.817  1.00  0.00     0.010 A 
ATOM     19  C   UNL     1     117.978 157.646 112.323  1.00  0.00     0.010 A 
ATOM     20  C   UNL     1     117.530 156.578 109.780  1.00  0.00     0.001 A 
ATOM     21  C   UNL     1     118.868 157.916 111.281  1.00  0.00     0.001 A 
ATOM     22  C   UNL     1     118.641 157.387 110.011  1.00  0.00     0.000 A 
ENDBRANCH  14  17
TORSDOF 1
ENDMDL
MODEL 5
REMARK VINA RESULT:    -7.264      4.409      7.084
REMARK INTER + INTRA:          -8.080
REMARK INTER:                  -7.641
REMARK INTRA:                  -0.439
REMARK UNBOUND:                -0.392
REMARK SMILES Cc1nnc2n1-c1ccc(Cl)cc1C(c1ccccc1)=NC2
REMARK SMILES IDX 1 1 2 2 3 3 4 4 5 5 6 6 7 7 8 8 9 9 10 10 11 11 12 12 13 13
REMARK SMILES IDX 14 14 21 15 22 16 15 17 16 18 20 19 17 20 19 21 18 22
REMARK H PARENT
ROOT
ATOM      1  C   UNL     1     115.938 153.813 116.682  1.00  0.00     0.090 C 
ATOM      2  C   UNL     1     116.317 155.068 117.372  1.00  0.00     0.134 A 
ATOM      3  N   UNL     1     116.334 155.216 118.682  1.00  0.00    -0.135 NA
ATOM      4  N   UNL     1     116.583 156.529 118.963  1.00  0.00    -0.133 NA
ATOM      5  C   UNL     1     116.719 157.169 117.822  1.00  0.00     0.159 A 
ATOM      6  N   UNL     1     116.601 156.285 116.772  1.00  0.00    -0.281 N 
ATOM      7  C   UNL     1     116.827 156.599 115.406  1.00  0.00     0.058 A 
ATOM      8  C   UNL     1     117.441 155.647 114.575  1.00  0.00     0.029 A 
ATOM      9  C   UNL     1     117.761 155.962 113.252  1.00  0.00     0.023 A 
ATOM     10  C   UNL     1     117.486 157.231 112.755  1.00  0.00     0.041 A 
ATOM     11  Cl  UNL     1     117.899 157.621 111.132  1.00  0.00    -0.084 Cl
ATOM     12  C   UNL     1     116.875 158.186 113.563  1.00  0.00     0.033 A 
ATOM     13  C   UNL     1     116.521 157.874 114.889  1.00  0.00     0.026 A 
ATOM     14  C   UNL     1     115.759 158.916 115.652  1.00  0.00     0.075 C 
ATOM     15  N   UNL     1     116.001 159.263 116.870  1.00  0.00    -0.276 NA
ATOM     16  C   UNL     1     117.050 158.599 117.630  1.00  0.00     0.220 C 
ENDROOT
BRANCH  14  17
ATOM     17  C   UNL     1     114.626 159.618 114.963  1.00  0.00     0.000 A 
ATOM     18  C   UNL     1     114.837 160.904 114.449  1.00  0.00     0.010 A 
ATOM     19  C   UNL     1     113.362 159.025 114.856  1.00  0.00     0.010 A 
ATOM     20  C   UNL     1     113.798 161.578 113.805  1.00  0.00     0.001 A 
ATOM     21  C   UNL     1     112.327 159.706 114.210  1.00  0.00     0.001 A 
ATOM     22  C   UNL     1     112.546 160.977 113.682  1.00  0.00     0.000 A 
ENDBRANCH  14  17
TORSDOF 1
ENDMDL
MODEL 6
REMARK VINA RESULT:    -7.215      3.267      6.580
REMARK INTER + INTRA:          -8.029
REMARK INTER:                  -8.360
REMARK INTRA:                   0.331
REMARK UNBOUND:                -0.392
REMARK SMILES Cc1nnc2n1-c1ccc(Cl)cc1C(c1ccccc1)=NC2
REMARK SMILES IDX 1 1 2 2 3 3 4 4 5 5 6 6 7 7 8 8 9 9 10 10 11 11 12 12 13 13
REMARK SMILES IDX 14 14 21 15 22 16 15 17 16 18 20 19 17 20 19 21 18 22
REMARK H PARENT
ROOT
ATOM      1  C   UNL     1     117.453 155.590 110.681  1.00  0.00     0.090 C 
ATOM      2  C   UNL     1     117.524 155.755 112.151  1.00  0.00     0.134 A 
ATOM      3  N   UNL     1     117.671 154.759 113.001  1.00  0.00    -0.135 NA
ATOM      4  N   UNL     1     117.546 155.252 114.269  1.00  0.00    -0.133 NA
ATOM      5  C   UNL     1     117.328 156.546 114.180  1.00  0.00     0.159 A 
ATOM      6  N   UNL     1     117.343 156.934 112.858  1.00  0.00    -0.281 N 
ATOM      7  C   UNL     1     117.278 158.275 112.396  1.00  0.00     0.058 A 
ATOM      8  C   UNL     1     118.034 158.651 111.273  1.00  0.00     0.029 A 
ATOM      9  C   UNL     1     118.063 159.984 110.853  1.00  0.00     0.023 A 
ATOM     10  C   UNL     1     117.352 160.949 111.557  1.00  0.00     0.041 A 
ATOM     11  Cl  UNL     1     117.406 162.591 111.048  1.00  0.00    -0.084 Cl
ATOM     12  C   UNL     1     116.595 160.594 112.670  1.00  0.00     0.033 A 
ATOM     13  C   UNL     1     116.534 159.251 113.088  1.00  0.00     0.026 A 
ATOM     14  C   UNL     1     115.602 158.934 114.220  1.00  0.00     0.075 C 
ATOM     15  N   UNL     1     115.889 158.174 115.221  1.00  0.00    -0.276 NA
ATOM     16  C   UNL     1     117.182 157.510 115.294  1.00  0.00     0.220 C 
ENDROOT
BRANCH  14  17
ATOM     17  C   UNL     1     114.228 159.537 114.202  1.00  0.00     0.000 A 
ATOM     18  C   UNL     1     113.189 158.876 114.869  1.00  0.00     0.010 A 
ATOM     19  C   UNL     1     113.964 160.724 113.507  1.00  0.00     0.010 A 
ATOM     20  C   UNL     1     111.902 159.416 114.866  1.00  0.00     0.001 A 
ATOM     21  C   UNL     1     112.674 161.259 113.508  1.00  0.00     0.001 A 
ATOM     22  C   UNL     1     111.646 160.608 114.190  1.00  0.00     0.000 A 
ENDBRANCH  14  17
TORSDOF 1
ENDMDL
MODEL 7
REMARK VINA RESULT:    -6.580      2.947      4.574
REMARK INTER + INTRA:          -7.356
REMARK INTER:                  -7.246
REMARK INTRA:                  -0.110
REMARK UNBOUND:                -0.392
REMARK SMILES Cc1nnc2n1-c1ccc(Cl)cc1C(c1ccccc1)=NC2
REMARK SMILES IDX 1 1 2 2 3 3 4 4 5 5 6 6 7 7 8 8 9 9 10 10 11 11 12 12 13 13
REMARK SMILES IDX 14 14 21 15 22 16 15 17 16 18 20 19 17 20 19 21 18 22
REMARK H PARENT
ROOT
ATOM      1  C   UNL     1     111.156 159.330 114.196  1.00  0.00     0.090 C 
ATOM      2  C   UNL     1     112.202 160.372 114.071  1.00  0.00     0.134 A 
ATOM      3  N   UNL     1     111.973 161.605 113.666  1.00  0.00    -0.135 NA
ATOM      4  N   UNL     1     113.174 162.243 113.529  1.00  0.00    -0.133 NA
ATOM      5  C   UNL     1     114.123 161.392 113.857  1.00  0.00     0.159 A 
ATOM      6  N   UNL     1     113.566 160.196 114.250  1.00  0.00    -0.281 N 
ATOM      7  C   UNL     1     114.281 159.099 114.798  1.00  0.00     0.058 A 
ATOM      8  C   UNL     1     113.692 158.338 115.822  1.00  0.00     0.029 A 
ATOM      9  C   UNL     1     114.409 157.312 116.444  1.00  0.00     0.023 A 
ATOM     10  C   UNL     1     115.719 157.049 116.061  1.00  0.00     0.041 A 
ATOM     11  Cl  UNL     1     116.604 155.800 116.842  1.00  0.00    -0.084 Cl
ATOM     12  C   UNL     1     116.317 157.791 115.046  1.00  0.00     0.033 A 
ATOM     13  C   UNL     1     115.599 158.808 114.390  1.00  0.00     0.026 A 
ATOM     14  C   UNL     1     116.273 159.476 113.229  1.00  0.00     0.075 C 
ATOM     15  N   UNL     1     116.288 160.749 113.018  1.00  0.00    -0.276 NA
ATOM     16  C   UNL     1     115.579 161.653 113.912  1.00  0.00     0.220 C 
ENDROOT
BRANCH  14  17
ATOM     17  C   UNL     1     116.987 158.617 112.228  1.00  0.00     0.000 A 
ATOM     18  C   UNL     1     117.998 159.186 111.444  1.00  0.00     0.010 A 
ATOM     19  C   UNL     1     116.638 157.273 112.045  1.00  0.00     0.010 A 
ATOM     20  C   UNL     1     118.675 158.407 110.505  1.00  0.00     0.001 A 
ATOM     21  C   UNL     1     117.321 156.499 111.104  1.00  0.00     0.001 A 
ATOM     22  C   UNL     1     118.340 157.064 110.338  1.00  0.00     0.000 A 
ENDBRANCH  14  17
TORSDOF 1
ENDMDL
