MODEL 1
REMARK VINA RESULT:    -9.497      0.000      0.000
REMARK INTER + INTRA:         -10.991
REMARK INTER:                 -10.608
REMARK INTRA:                  -0.384
REMARK UNBOUND:                -0.384
REMARK SMILES O=C1CN=C(c2ccccc2Cl)c2cc([N+](=O)[O-])ccc2N1
REMARK SMILES IDX 1 1 2 2 3 3 4 4 5 5 13 6 14 7 15 8 19 9 20 10 21 11 22 12
REMARK SMILES IDX 6 14 7 15 11 16 8 17 10 18 9 19 12 20 16 21 17 22 18 23
REMARK H PARENT 22 13
ROOT
ATOM      1  O   UNL     1     117.050 161.733 111.592  1.00  0.00    -0.273 OA
ATOM      2  C   UNL     1     117.415 160.558 111.603  1.00  0.00     0.246 C 
ATOM      3  C   UNL     1     118.575 160.050 110.771  1.00  0.00     0.243 C 
ATOM      4  N   UNL     1     118.115 159.072 109.796  1.00  0.00    -0.274 NA
ATOM      5  C   UNL     1     117.704 157.920 110.197  1.00  0.00     0.076 C 
ATOM      6  C   UNL     1     117.571 157.469 111.617  1.00  0.00     0.031 A 
ATOM      7  C   UNL     1     117.826 156.115 111.908  1.00  0.00     0.098 A 
ATOM      8  C   UNL     1     117.546 155.604 113.180  1.00  0.00     0.270 A 
ATOM      9  C   UNL     1     116.997 156.425 114.169  1.00  0.00     0.088 A 
ATOM     10  C   UNL     1     116.757 157.771 113.884  1.00  0.00     0.034 A 
ATOM     11  C   UNL     1     117.072 158.312 112.627  1.00  0.00     0.051 A 
ATOM     12  N   UNL     1     116.831 159.687 112.483  1.00  0.00    -0.324 N 
ATOM     13  H   UNL     1     116.215 160.153 113.138  1.00  0.00     0.170 HD
ENDROOT
BRANCH   5  14
ATOM     14  C   UNL     1     117.269 156.978 109.132  1.00  0.00     0.019 A 
ATOM     15  C   UNL     1     115.954 156.498 109.182  1.00  0.00     0.012 A 
ATOM     16  C   UNL     1     118.126 156.592 108.096  1.00  0.00     0.050 A 
ATOM     17  C   UNL     1     115.501 155.621 108.198  1.00  0.00     0.001 A 
ATOM     18  C   UNL     1     117.664 155.712 107.115  1.00  0.00     0.021 A 
ATOM     19  C   UNL     1     116.354 155.227 107.167  1.00  0.00     0.002 A 
ATOM     20  Cl  UNL     1     119.768 157.118 108.012  1.00  0.00    -0.084 Cl
ENDBRANCH   5  14
BRANCH   8  21
ATOM     21  N   UNL     1     117.806 154.187 113.472  1.00  0.00     0.062 N 
ATOM     22  O   UNL     1     118.205 153.473 112.541  1.00  0.00    -0.258 OA
ATOM     23  O   UNL     1     117.617 153.796 114.631  1.00  0.00    -0.258 OA
ENDBRANCH   8  21
TORSDOF 2
ENDMDL
MODEL 2
REMARK VINA RESULT:    -8.995      3.484      5.672
REMARK INTER + INTRA:         -10.430
REMARK INTER:                 -10.289
REMARK INTRA:                  -0.141
REMARK UNBOUND:                -0.384
REMARK SMILES O=C1CN=C(c2ccccc2Cl)c2cc([N+](=O)[O-])ccc2N1
REMARK SMILES IDX 1 1 2 2 3 3 4 4 5 5 13 6 14 7 15 8 19 9 20 10 21 11 22 12
REMARK SMILES IDX 6 14 7 15 11 16 8 17 10 18 9 19 12 20 16 21 17 22 18 23
REMARK H PARENT 22 13
ROOT
ATOM      1  O   UNL     1     122.813 160.501 108.404  1.00  0.00    -0.273 OA
ATOM      2  C   UNL     1     121.666 160.056 108.341  1.00  0.00     0.246 C 
ATOM      3  C   UNL     1     120.442 160.886 108.667  1.00  0.00     0.243 C 
ATOM      4  N   UNL     1     119.746 160.338 109.821  1.00  0.00    -0.274 NA
ATOM      5  C   UNL     1     119.136 159.210 109.717  1.00  0.00     0.076 C 
ATOM      6  C   UNL     1     119.114 158.319 108.517  1.00  0.00     0.031 A 
ATOM      7  C   UNL     1     117.941 157.584 108.258  1.00  0.00     0.098 A 
ATOM      8  C   UNL     1     117.929 156.606 107.257  1.00  0.00     0.270 A 
ATOM      9  C   UNL     1     119.081 156.339 106.513  1.00  0.00     0.088 A 
ATOM     10  C   UNL     1     120.240 157.077 106.760  1.00  0.00     0.034 A 
ATOM     11  C   UNL     1     120.260 158.091 107.732  1.00  0.00     0.051 A 
ATOM     12  N   UNL     1     121.469 158.793 107.849  1.00  0.00    -0.324 N 
ATOM     13  H   UNL     1     122.315 158.390 107.466  1.00  0.00     0.170 HD
ENDROOT
BRANCH   5  14
ATOM     14  C   UNL     1     118.436 158.735 110.940  1.00  0.00     0.019 A 
ATOM     15  C   UNL     1     118.677 157.420 111.361  1.00  0.00     0.012 A 
ATOM     16  C   UNL     1     117.579 159.566 111.668  1.00  0.00     0.050 A 
ATOM     17  C   UNL     1     118.050 156.936 112.509  1.00  0.00     0.001 A 
ATOM     18  C   UNL     1     116.955 159.073 112.815  1.00  0.00     0.021 A 
ATOM     19  C   UNL     1     117.189 157.760 113.234  1.00  0.00     0.002 A 
ATOM     20  Cl  UNL     1     117.212 161.178 111.169  1.00  0.00    -0.084 Cl
ENDBRANCH   5  14
BRANCH   8  21
ATOM     21  N   UNL     1     116.702 155.838 107.001  1.00  0.00     0.062 N 
ATOM     22  O   UNL     1     115.784 155.930 107.827  1.00  0.00    -0.258 OA
ATOM     23  O   UNL     1     116.660 155.150 105.973  1.00  0.00    -0.258 OA
ENDBRANCH   8  21
TORSDOF 2
ENDMDL
MODEL 3
REMARK VINA RESULT:    -8.936      3.387      6.013
REMARK INTER + INTRA:         -10.365
REMARK INTER:                 -10.579
REMARK INTRA:                   0.214
REMARK UNBOUND:                -0.384
REMARK SMILES O=C1CN=C(c2ccccc2Cl)c2cc([N+](=O)[O-])ccc2N1
REMARK SMILES IDX 1 1 2 2 3 3 4 4 5 5 13 6 14 7 15 8 19 9 20 10 21 11 22 12
REMARK SMILES IDX 6 14 7 15 11 16 8 17 10 18 9 19 12 20 16 21 17 22 18 23
REMARK H PARENT 22 13
ROOT
ATOM      1  O   UNL     1     115.782 155.915 112.403  1.00  0.00    -0.273 OA
ATOM      2  C   UNL     1     116.657 156.169 111.575  1.00  0.00     0.246 C 
ATOM      3  C   UNL     1     118.115 156.346 111.947  1.00  0.00     0.243 C 
ATOM      4  N   UNL     1     118.554 157.702 111.655  1.00  0.00    -0.274 NA
ATOM      5  C   UNL     1     118.667 158.084 110.432  1.00  0.00     0.076 C 
ATOM      6  C   UNL     1     118.316 157.286 109.216  1.00  0.00     0.031 A 
ATOM      7  C   UNL     1     119.098 157.464 108.059  1.00  0.00     0.098 A 
ATOM      8  C   UNL     1     118.707 156.879 106.848  1.00  0.00     0.270 A 
ATOM      9  C   UNL     1     117.532 156.127 106.771  1.00  0.00     0.088 A 
ATOM     10  C   UNL     1     116.763 155.940 107.922  1.00  0.00     0.034 A 
ATOM     11  C   UNL     1     117.161 156.483 109.155  1.00  0.00     0.051 A 
ATOM     12  N   UNL     1     116.332 156.181 110.245  1.00  0.00    -0.324 N 
ATOM     13  H   UNL     1     115.389 155.853 110.074  1.00  0.00     0.170 HD
ENDROOT
BRANCH   5  14
ATOM     14  C   UNL     1     119.139 159.479 110.226  1.00  0.00     0.019 A 
ATOM     15  C   UNL     1     120.308 159.669 109.477  1.00  0.00     0.012 A 
ATOM     16  C   UNL     1     118.439 160.576 110.739  1.00  0.00     0.050 A 
ATOM     17  C   UNL     1     120.781 160.961 109.251  1.00  0.00     0.001 A 
ATOM     18  C   UNL     1     118.921 161.866 110.508  1.00  0.00     0.021 A 
ATOM     19  C   UNL     1     120.090 162.058 109.766  1.00  0.00     0.002 A 
ATOM     20  Cl  UNL     1     117.020 160.396 111.705  1.00  0.00    -0.084 Cl
ENDBRANCH   5  14
BRANCH   8  21
ATOM     21  N   UNL     1     119.524 157.078 105.644  1.00  0.00     0.062 N 
ATOM     22  O   UNL     1     120.727 156.789 105.712  1.00  0.00    -0.258 OA
ATOM     23  O   UNL     1     118.960 157.515 104.633  1.00  0.00    -0.258 OA
ENDBRANCH   8  21
TORSDOF 2
ENDMDL
MODEL 4
REMARK VINA RESULT:    -8.837      1.855      2.307
REMARK INTER + INTRA:         -10.254
REMARK INTER:                 -11.219
REMARK INTRA:                   0.966
REMARK UNBOUND:                -0.384
REMARK SMILES O=C1CN=C(c2ccccc2Cl)c2cc([N+](=O)[O-])ccc2N1
REMARK SMILES IDX 1 1 2 2 3 3 4 4 5 5 13 6 14 7 15 8 19 9 20 10 21 11 22 12
REMARK SMILES IDX 6 14 7 15 11 16 8 17 10 18 9 19 12 20 16 21 17 22 18 23
REMARK H PARENT 22 13
ROOT
ATOM      1  O   UNL     1     120.370 161.780 109.122  1.00  0.00    -0.273 OA
ATOM      2  C   UNL     1     120.054 160.649 109.492  1.00  0.00     0.246 C 
ATOM      3  C   UNL     1     120.852 159.412 109.132  1.00  0.00     0.243 C 
ATOM      4  N   UNL     1     120.054 158.510 108.315  1.00  0.00    -0.274 NA
ATOM      5  C   UNL     1     119.055 157.893 108.841  1.00  0.00     0.076 C 
ATOM      6  C   UNL     1     118.548 158.053 110.239  1.00  0.00     0.031 A 
ATOM      7  C   UNL     1     118.013 156.921 110.883  1.00  0.00     0.098 A 
ATOM      8  C   UNL     1     117.366 157.053 112.118  1.00  0.00     0.270 A 
ATOM      9  C   UNL     1     117.231 158.308 112.716  1.00  0.00     0.088 A 
ATOM     10  C   UNL     1     117.774 159.429 112.084  1.00  0.00     0.034 A 
ATOM     11  C   UNL     1     118.463 159.311 110.866  1.00  0.00     0.051 A 
ATOM     12  N   UNL     1     119.005 160.501 110.359  1.00  0.00    -0.324 N 
ATOM     13  H   UNL     1     118.661 161.388 110.706  1.00  0.00     0.170 HD
ENDROOT
BRANCH   5  14
ATOM     14  C   UNL     1     118.307 156.978 107.939  1.00  0.00     0.019 A 
ATOM     15  C   UNL     1     117.030 156.564 108.340  1.00  0.00     0.012 A 
ATOM     16  C   UNL     1     118.838 156.553 106.717  1.00  0.00     0.050 A 
ATOM     17  C   UNL     1     116.289 155.714 107.520  1.00  0.00     0.001 A 
ATOM     18  C   UNL     1     118.090 155.702 105.902  1.00  0.00     0.021 A 
ATOM     19  C   UNL     1     116.818 155.282 106.303  1.00  0.00     0.002 A 
ATOM     20  Cl  UNL     1     120.423 156.996 106.195  1.00  0.00    -0.084 Cl
ENDBRANCH   5  14
BRANCH   8  21
ATOM     21  N   UNL     1     116.803 155.867 112.778  1.00  0.00     0.062 N 
ATOM     22  O   UNL     1     117.594 155.075 113.308  1.00  0.00    -0.258 OA
ATOM     23  O   UNL     1     115.572 155.736 112.769  1.00  0.00    -0.258 OA
ENDBRANCH   8  21
TORSDOF 2
ENDMDL
MODEL 5
REMARK VINA RESULT:    -8.125      3.168      5.905
REMARK INTER + INTRA:          -9.459
REMARK INTER:                 -10.088
REMARK INTRA:                   0.629
REMARK UNBOUND:                -0.384
REMARK SMILES O=C1CN=C(c2ccccc2Cl)c2cc([N+](=O)[O-])ccc2N1
REMARK SMILES IDX 1 1 2 2 3 3 4 4 5 5 13 6 14 7 15 8 19 9 20 10 21 11 22 12
REMARK SMILES IDX 6 14 7 15 11 16 8 17 10 18 9 19 12 20 16 21 17 22 18 23
REMARK H PARENT 22 13
ROOT
ATOM      1  O   UNL     1     115.448 155.605 112.615  1.00  0.00    -0.273 OA
ATOM      2  C   UNL     1     116.413 156.063 112.003  1.00  0.00     0.246 C 
ATOM      3  C   UNL     1     117.636 156.626 112.698  1.00  0.00     0.243 C 
ATOM      4  N   UNL     1     117.781 158.044 112.404  1.00  0.00    -0.274 NA
ATOM      5  C   UNL     1     118.102 158.417 111.215  1.00  0.00     0.076 C 
ATOM      6  C   UNL     1     118.283 157.530 110.024  1.00  0.00     0.031 A 
ATOM      7  C   UNL     1     119.264 157.884 109.078  1.00  0.00     0.098 A 
ATOM      8  C   UNL     1     119.353 157.192 107.864  1.00  0.00     0.270 A 
ATOM      9  C   UNL     1     118.463 156.155 107.572  1.00  0.00     0.088 A 
ATOM     10  C   UNL     1     117.499 155.796 108.517  1.00  0.00     0.034 A 
ATOM     11  C   UNL     1     117.421 156.449 109.758  1.00  0.00     0.051 A 
ATOM     12  N   UNL     1     116.444 155.962 110.638  1.00  0.00    -0.324 N 
ATOM     13  H   UNL     1     115.690 155.393 110.274  1.00  0.00     0.170 HD
ENDROOT
BRANCH   5  14
ATOM     14  C   UNL     1     118.247 159.882 111.010  1.00  0.00     0.019 A 
ATOM     15  C   UNL     1     119.357 160.334 110.284  1.00  0.00     0.012 A 
ATOM     16  C   UNL     1     117.303 160.791 111.499  1.00  0.00     0.050 A 
ATOM     17  C   UNL     1     119.527 161.699 110.059  1.00  0.00     0.001 A 
ATOM     18  C   UNL     1     117.481 162.157 111.269  1.00  0.00     0.021 A 
ATOM     19  C   UNL     1     118.591 162.610 110.551  1.00  0.00     0.002 A 
ATOM     20  Cl  UNL     1     115.941 160.293 112.437  1.00  0.00    -0.084 Cl
ENDBRANCH   5  14
BRANCH   8  21
ATOM     21  N   UNL     1     120.374 157.574 106.879  1.00  0.00     0.062 N 
ATOM     22  O   UNL     1     120.873 158.704 106.978  1.00  0.00    -0.258 OA
ATOM     23  O   UNL     1     120.677 156.742 106.014  1.00  0.00    -0.258 OA
ENDBRANCH   8  21
TORSDOF 2
ENDMDL
MODEL 6
REMARK VINA RESULT:    -7.696      3.314      5.411
REMARK INTER + INTRA:          -8.980
REMARK INTER:                  -8.657
REMARK INTRA:                  -0.323
REMARK UNBOUND:                -0.384
REMARK SMILES O=C1CN=C(c2ccccc2Cl)c2cc([N+](=O)[O-])ccc2N1
REMARK SMILES IDX 1 1 2 2 3 3 4 4 5 5 13 6 14 7 15 8 19 9 20 10 21 11 22 12
REMARK SMILES IDX 6 14 7 15 11 16 8 17 10 18 9 19 12 20 16 21 17 22 18 23
REMARK H PARENT 22 13
ROOT
ATOM      1  O   UNL     1     121.845 158.877 107.558  1.00  0.00    -0.273 OA
ATOM      2  C   UNL     1     120.663 158.630 107.795  1.00  0.00     0.246 C 
ATOM      3  C   UNL     1     119.704 159.662 108.353  1.00  0.00     0.243 C 
ATOM      4  N   UNL     1     119.231 159.259 109.670  1.00  0.00    -0.274 NA
ATOM      5  C   UNL     1     118.442 158.248 109.779  1.00  0.00     0.076 C 
ATOM      6  C   UNL     1     117.986 157.353 108.671  1.00  0.00     0.031 A 
ATOM      7  C   UNL     1     116.684 156.822 108.742  1.00  0.00     0.098 A 
ATOM      8  C   UNL     1     116.272 155.844 107.830  1.00  0.00     0.270 A 
ATOM      9  C   UNL     1     117.150 155.372 106.851  1.00  0.00     0.088 A 
ATOM     10  C   UNL     1     118.438 155.908 106.773  1.00  0.00     0.034 A 
ATOM     11  C   UNL     1     118.855 156.921 107.651  1.00  0.00     0.051 A 
ATOM     12  N   UNL     1     120.152 157.411 107.437  1.00  0.00    -0.324 N 
ATOM     13  H   UNL     1     120.804 156.864 106.889  1.00  0.00     0.170 HD
ENDROOT
BRANCH   5  14
ATOM     14  C   UNL     1     117.994 157.919 111.158  1.00  0.00     0.019 A 
ATOM     15  C   UNL     1     118.240 156.624 111.633  1.00  0.00     0.012 A 
ATOM     16  C   UNL     1     117.367 158.866 111.974  1.00  0.00     0.050 A 
ATOM     17  C   UNL     1     117.847 156.275 112.925  1.00  0.00     0.001 A 
ATOM     18  C   UNL     1     116.976 158.508 113.266  1.00  0.00     0.021 A 
ATOM     19  C   UNL     1     117.214 157.214 113.739  1.00  0.00     0.002 A 
ATOM     20  Cl  UNL     1     117.000 160.461 111.424  1.00  0.00    -0.084 Cl
ENDBRANCH   5  14
BRANCH   8  21
ATOM     21  N   UNL     1     114.914 155.289 107.917  1.00  0.00     0.062 N 
ATOM     22  O   UNL     1     114.689 154.225 107.324  1.00  0.00    -0.258 OA
ATOM     23  O   UNL     1     114.079 155.916 108.582  1.00  0.00    -0.258 OA
ENDBRANCH   8  21
TORSDOF 2
ENDMDL
MODEL 7
REMARK VINA RESULT:    -7.469      2.258      4.453
REMARK INTER + INTRA:          -8.726
REMARK INTER:                  -8.212
REMARK INTRA:                  -0.514
REMARK UNBOUND:                -0.384
REMARK SMILES O=C1CN=C(c2ccccc2Cl)c2cc([N+](=O)[O-])ccc2N1
REMARK SMILES IDX 1 1 2 2 3 3 4 4 5 5 13 6 14 7 15 8 19 9 20 10 21 11 22 12
REMARK SMILES IDX 6 14 7 15 11 16 8 17 10 18 9 19 12 20 16 21 17 22 18 23
REMARK H PARENT 22 13
ROOT
ATOM      1  O   UNL     1     117.181 154.838 107.644  1.00  0.00    -0.273 OA
ATOM      2  C   UNL     1     116.923 155.407 108.705  1.00  0.00     0.246 C 
ATOM      3  C   UNL     1     115.811 156.426 108.844  1.00  0.00     0.243 C 
ATOM      4  N   UNL     1     116.355 157.730 109.191  1.00  0.00    -0.274 NA
ATOM      5  C   UNL     1     116.870 157.914 110.356  1.00  0.00     0.076 C 
ATOM      6  C   UNL     1     117.047 156.879 111.422  1.00  0.00     0.031 A 
ATOM      7  C   UNL     1     116.917 157.282 112.765  1.00  0.00     0.098 A 
ATOM      8  C   UNL     1     117.247 156.400 113.800  1.00  0.00     0.270 A 
ATOM      9  C   UNL     1     117.722 155.118 113.514  1.00  0.00     0.088 A 
ATOM     10  C   UNL     1     117.838 154.713 112.182  1.00  0.00     0.034 A 
ATOM     11  C   UNL     1     117.472 155.569 111.130  1.00  0.00     0.051 A 
ATOM     12  N   UNL     1     117.586 155.028 109.842  1.00  0.00    -0.324 N 
ATOM     13  H   UNL     1     118.160 154.205 109.699  1.00  0.00     0.170 HD
ENDROOT
BRANCH   5  14
ATOM     14  C   UNL     1     117.385 159.281 110.632  1.00  0.00     0.019 A 
ATOM     15  C   UNL     1     116.535 160.178 111.294  1.00  0.00     0.012 A 
ATOM     16  C   UNL     1     118.679 159.667 110.268  1.00  0.00     0.050 A 
ATOM     17  C   UNL     1     116.981 161.467 111.582  1.00  0.00     0.001 A 
ATOM     18  C   UNL     1     119.117 160.961 110.560  1.00  0.00     0.021 A 
ATOM     19  C   UNL     1     118.269 161.859 111.215  1.00  0.00     0.002 A 
ATOM     20  Cl  UNL     1     119.750 158.618 109.412  1.00  0.00    -0.084 Cl
ENDBRANCH   5  14
BRANCH   8  21
ATOM     21  N   UNL     1     117.117 156.833 115.198  1.00  0.00     0.062 N 
ATOM     22  O   UNL     1     116.719 155.999 116.023  1.00  0.00    -0.258 OA
ATOM     23  O   UNL     1     117.420 158.002 115.467  1.00  0.00    -0.258 OA
ENDBRANCH   8  21
TORSDOF 2
ENDMDL
MODEL 8
REMARK VINA RESULT:    -7.239      2.405      5.247
REMARK INTER + INTRA:          -8.469
REMARK INTER:                  -8.003
REMARK INTRA:                  -0.466
REMARK UNBOUND:                -0.384
REMARK SMILES O=C1CN=C(c2ccccc2Cl)c2cc([N+](=O)[O-])ccc2N1
REMARK SMILES IDX 1 1 2 2 3 3 4 4 5 5 13 6 14 7 15 8 19 9 20 10 21 11 22 12
REMARK SMILES IDX 6 14 7 15 11 16 8 17 10 18 9 19 12 20 16 21 17 22 18 23
REMARK H PARENT 22 13
ROOT
ATOM      1  O   UNL     1     117.447 153.891 115.750  1.00  0.00    -0.273 OA
ATOM      2  C   UNL     1     116.960 154.845 115.143  1.00  0.00     0.246 C 
ATOM      3  C   UNL     1     116.145 154.685 113.876  1.00  0.00     0.243 C 
ATOM      4  N   UNL     1     116.813 155.330 112.755  1.00  0.00    -0.274 NA
ATOM      5  C   UNL     1     116.893 156.614 112.718  1.00  0.00     0.076 C 
ATOM      6  C   UNL     1     116.423 157.565 113.772  1.00  0.00     0.031 A 
ATOM      7  C   UNL     1     115.910 158.810 113.360  1.00  0.00     0.098 A 
ATOM      8  C   UNL     1     115.623 159.801 114.306  1.00  0.00     0.270 A 
ATOM      9  C   UNL     1     115.857 159.574 115.664  1.00  0.00     0.088 A 
ATOM     10  C   UNL     1     116.353 158.334 116.074  1.00  0.00     0.034 A 
ATOM     11  C   UNL     1     116.607 157.312 115.145  1.00  0.00     0.051 A 
ATOM     12  N   UNL     1     117.054 156.099 115.687  1.00  0.00    -0.324 N 
ATOM     13  H   UNL     1     117.431 156.085 116.627  1.00  0.00     0.170 HD
ENDROOT
BRANCH   5  14
ATOM     14  C   UNL     1     117.575 157.188 111.528  1.00  0.00     0.019 A 
ATOM     15  C   UNL     1     118.745 157.930 111.740  1.00  0.00     0.012 A 
ATOM     16  C   UNL     1     117.090 156.986 110.232  1.00  0.00     0.050 A 
ATOM     17  C   UNL     1     119.423 158.478 110.652  1.00  0.00     0.001 A 
ATOM     18  C   UNL     1     117.775 157.539 109.148  1.00  0.00     0.021 A 
ATOM     19  C   UNL     1     118.939 158.285 109.358  1.00  0.00     0.002 A 
ATOM     20  Cl  UNL     1     115.630 156.119 109.918  1.00  0.00    -0.084 Cl
ENDBRANCH   5  14
BRANCH   8  21
ATOM     21  N   UNL     1     115.096 161.101 113.865  1.00  0.00     0.062 N 
ATOM     22  O   UNL     1     115.890 162.049 113.799  1.00  0.00    -0.258 OA
ATOM     23  O   UNL     1     113.893 161.166 113.582  1.00  0.00    -0.258 OA
ENDBRANCH   8  21
TORSDOF 2
ENDMDL
MODEL 9
REMARK VINA RESULT:    -6.954      4.206      6.419
REMARK INTER + INTRA:          -8.151
REMARK INTER:                  -7.467
REMARK INTRA:                  -0.683
REMARK UNBOUND:                -0.384
REMARK SMILES O=C1CN=C(c2ccccc2Cl)c2cc([N+](=O)[O-])ccc2N1
REMARK SMILES IDX 1 1 2 2 3 3 4 4 5 5 13 6 14 7 15 8 19 9 20 10 21 11 22 12
REMARK SMILES IDX 6 14 7 15 11 16 8 17 10 18 9 19 12 20 16 21 17 22 18 23
REMARK H PARENT 22 13
ROOT
ATOM      1  O   UNL     1     116.614 156.588 119.135  1.00  0.00    -0.273 OA
ATOM      2  C   UNL     1     116.764 156.945 117.967  1.00  0.00     0.246 C 
ATOM      3  C   UNL     1     117.207 158.343 117.584  1.00  0.00     0.243 C 
ATOM      4  N   UNL     1     116.165 159.018 116.827  1.00  0.00    -0.274 NA
ATOM      5  C   UNL     1     115.886 158.621 115.635  1.00  0.00     0.076 C 
ATOM      6  C   UNL     1     116.485 157.446 114.928  1.00  0.00     0.031 A 
ATOM      7  C   UNL     1     116.672 157.537 113.535  1.00  0.00     0.098 A 
ATOM      8  C   UNL     1     117.060 156.409 112.802  1.00  0.00     0.270 A 
ATOM      9  C   UNL     1     117.252 155.181 113.440  1.00  0.00     0.088 A 
ATOM     10  C   UNL     1     117.080 155.095 114.823  1.00  0.00     0.034 A 
ATOM     11  C   UNL     1     116.732 156.224 115.582  1.00  0.00     0.051 A 
ATOM     12  N   UNL     1     116.640 156.019 116.966  1.00  0.00    -0.324 N 
ATOM     13  H   UNL     1     116.546 155.075 117.321  1.00  0.00     0.170 HD
ENDROOT
BRANCH   5  14
ATOM     14  C   UNL     1     114.821 159.379 114.928  1.00  0.00     0.019 A 
ATOM     15  C   UNL     1     115.187 160.564 114.274  1.00  0.00     0.012 A 
ATOM     16  C   UNL     1     113.498 158.928 114.889  1.00  0.00     0.050 A 
ATOM     17  C   UNL     1     114.222 161.302 113.589  1.00  0.00     0.001 A 
ATOM     18  C   UNL     1     112.538 159.674 114.202  1.00  0.00     0.021 A 
ATOM     19  C   UNL     1     112.900 160.859 113.554  1.00  0.00     0.002 A 
ATOM     20  Cl  UNL     1     112.984 157.501 115.714  1.00  0.00    -0.084 Cl
ENDBRANCH   5  14
BRANCH   8  21
ATOM     21  N   UNL     1     117.243 156.510 111.348  1.00  0.00     0.062 N 
ATOM     22  O   UNL     1     118.321 156.961 110.935  1.00  0.00    -0.258 OA
ATOM     23  O   UNL     1     116.312 156.134 110.624  1.00  0.00    -0.258 OA
ENDBRANCH   8  21
TORSDOF 2
ENDMDL
