MODEL 1
REMARK VINA RESULT:    -6.886      0.000      0.000
REMARK INTER + INTRA:          -7.894
REMARK INTER:                  -7.490
REMARK INTRA:                  -0.404
REMARK UNBOUND:                -0.404
REMARK SMILES CN1C(=O)C(O)N=C(c2ccccc2)c2cc(Cl)ccc21
REMARK SMILES IDX 1 1 2 2 3 3 4 4 5 5 7 6 8 7 15 8 16 9 17 10 18 11 19 12
REMARK SMILES IDX 20 13 21 14 6 15 9 17 10 18 14 19 11 20 13 21 12 22
REMARK H PARENT 6 16
ROOT
ATOM      1  C   UNL     1     140.006  98.220 134.754  1.00  0.00     0.153 C 
ATOM      2  N   UNL     1     141.418  98.077 135.092  1.00  0.00    -0.311 N 
ATOM      3  C   UNL     1     142.342  98.676 134.226  1.00  0.00     0.278 C 
ATOM      4  O   UNL     1     142.007  99.191 133.154  1.00  0.00    -0.269 OA
ATOM      5  C   UNL     1     143.823  98.721 134.701  1.00  0.00     0.323 C 
ATOM      6  N   UNL     1     144.355  97.378 134.537  1.00  0.00    -0.243 NA
ATOM      7  C   UNL     1     143.939  96.460 135.343  1.00  0.00     0.078 C 
ATOM      8  C   UNL     1     142.986  96.701 136.470  1.00  0.00     0.026 A 
ATOM      9  C   UNL     1     143.319  96.131 137.713  1.00  0.00     0.033 A 
ATOM     10  C   UNL     1     142.431  96.214 138.780  1.00  0.00     0.041 A 
ATOM     11  Cl  UNL     1     142.836  95.502 140.291  1.00  0.00    -0.084 Cl
ATOM     12  C   UNL     1     141.213  96.861 138.623  1.00  0.00     0.023 A 
ATOM     13  C   UNL     1     140.890  97.450 137.398  1.00  0.00     0.028 A 
ATOM     14  C   UNL     1     141.777  97.410 136.304  1.00  0.00     0.053 A 
ENDROOT
BRANCH   5  15
ATOM     15  O   UNL     1     144.552  99.681 133.952  1.00  0.00    -0.364 OA
ATOM     16  H   UNL     1     143.865 100.129 133.426  1.00  0.00     0.213 HD
ENDBRANCH   5  15
BRANCH   7  17
ATOM     17  C   UNL     1     144.456  95.072 135.123  1.00  0.00     0.000 A 
ATOM     18  C   UNL     1     143.684  94.170 134.381  1.00  0.00     0.010 A 
ATOM     19  C   UNL     1     145.678  94.656 135.668  1.00  0.00     0.010 A 
ATOM     20  C   UNL     1     144.143  92.871 134.162  1.00  0.00     0.001 A 
ATOM     21  C   UNL     1     146.133  93.355 135.445  1.00  0.00     0.001 A 
ATOM     22  C   UNL     1     145.368  92.465 134.691  1.00  0.00     0.000 A 
ENDBRANCH   7  17
TORSDOF 2
ENDMDL
MODEL 2
REMARK VINA RESULT:    -6.689      3.728      5.339
REMARK INTER + INTRA:          -7.680
REMARK INTER:                  -7.238
REMARK INTRA:                  -0.441
REMARK UNBOUND:                -0.404
REMARK SMILES CN1C(=O)C(O)N=C(c2ccccc2)c2cc(Cl)ccc21
REMARK SMILES IDX 1 1 2 2 3 3 4 4 5 5 7 6 8 7 15 8 16 9 17 10 18 11 19 12
REMARK SMILES IDX 20 13 21 14 6 15 9 17 10 18 14 19 11 20 13 21 12 22
REMARK H PARENT 6 16
ROOT
ATOM      1  C   UNL     1     138.913 100.614 134.513  1.00  0.00     0.153 C 
ATOM      2  N   UNL     1     139.730  99.767 133.653  1.00  0.00    -0.311 N 
ATOM      3  C   UNL     1     140.099 100.293 132.408  1.00  0.00     0.278 C 
ATOM      4  O   UNL     1     139.655 101.367 131.985  1.00  0.00    -0.269 OA
ATOM      5  C   UNL     1     141.151  99.491 131.589  1.00  0.00     0.323 C 
ATOM      6  N   UNL     1     140.459  98.339 131.034  1.00  0.00    -0.243 NA
ATOM      7  C   UNL     1     140.109  97.397 131.843  1.00  0.00     0.078 C 
ATOM      8  C   UNL     1     140.417  97.387 133.306  1.00  0.00     0.026 A 
ATOM      9  C   UNL     1     140.921  96.186 133.839  1.00  0.00     0.033 A 
ATOM     10  C   UNL     1     141.127  96.061 135.208  1.00  0.00     0.041 A 
ATOM     11  Cl  UNL     1     141.727  94.587 135.855  1.00  0.00    -0.084 Cl
ATOM     12  C   UNL     1     140.838  97.123 136.056  1.00  0.00     0.023 A 
ATOM     13  C   UNL     1     140.361  98.326 135.527  1.00  0.00     0.028 A 
ATOM     14  C   UNL     1     140.167  98.496 134.142  1.00  0.00     0.053 A 
ENDROOT
BRANCH   5  15
ATOM     15  O   UNL     1     141.721 100.311 130.580  1.00  0.00    -0.364 OA
ATOM     16  H   UNL     1     142.657 100.038 130.567  1.00  0.00     0.213 HD
ENDBRANCH   5  15
BRANCH   7  17
ATOM     17  C   UNL     1     139.348  96.245 131.261  1.00  0.00     0.000 A 
ATOM     18  C   UNL     1     140.047  95.255 130.561  1.00  0.00     0.010 A 
ATOM     19  C   UNL     1     137.955  96.159 131.381  1.00  0.00     0.010 A 
ATOM     20  C   UNL     1     139.363  94.172 130.009  1.00  0.00     0.001 A 
ATOM     21  C   UNL     1     137.274  95.072 130.828  1.00  0.00     0.001 A 
ATOM     22  C   UNL     1     137.978  94.079 130.145  1.00  0.00     0.000 A 
ENDBRANCH   7  17
TORSDOF 2
ENDMDL
MODEL 3
REMARK VINA RESULT:    -6.615      1.381      1.826
REMARK INTER + INTRA:          -7.600
REMARK INTER:                  -7.095
REMARK INTRA:                  -0.505
REMARK UNBOUND:                -0.404
REMARK SMILES CN1C(=O)C(O)N=C(c2ccccc2)c2cc(Cl)ccc21
REMARK SMILES IDX 1 1 2 2 3 3 4 4 5 5 7 6 8 7 15 8 16 9 17 10 18 11 19 12
REMARK SMILES IDX 20 13 21 14 6 15 9 17 10 18 14 19 11 20 13 21 12 22
REMARK H PARENT 6 16
ROOT
ATOM      1  C   UNL     1     140.079  98.289 133.358  1.00  0.00     0.153 C 
ATOM      2  N   UNL     1     141.518  98.210 133.577  1.00  0.00    -0.311 N 
ATOM      3  C   UNL     1     142.346  98.592 132.513  1.00  0.00     0.278 C 
ATOM      4  O   UNL     1     141.900  98.859 131.391  1.00  0.00    -0.269 OA
ATOM      5  C   UNL     1     143.866  98.725 132.817  1.00  0.00     0.323 C 
ATOM      6  N   UNL     1     144.394  97.373 132.904  1.00  0.00    -0.243 NA
ATOM      7  C   UNL     1     144.070  96.662 133.931  1.00  0.00     0.078 C 
ATOM      8  C   UNL     1     143.231  97.157 135.065  1.00  0.00     0.026 A 
ATOM      9  C   UNL     1     143.691  96.874 136.364  1.00  0.00     0.033 A 
ATOM     10  C   UNL     1     142.913  97.202 137.469  1.00  0.00     0.041 A 
ATOM     11  Cl  UNL     1     143.473  96.840 139.052  1.00  0.00    -0.084 Cl
ATOM     12  C   UNL     1     141.678  97.812 137.293  1.00  0.00     0.023 A 
ATOM     13  C   UNL     1     141.229  98.117 136.005  1.00  0.00     0.028 A 
ATOM     14  C   UNL     1     142.004  97.825 134.866  1.00  0.00     0.053 A 
ENDROOT
BRANCH   5  15
ATOM     15  O   UNL     1     144.507  99.486 131.805  1.00  0.00    -0.364 OA
ATOM     16  H   UNL     1     144.688  98.830 131.108  1.00  0.00     0.213 HD
ENDBRANCH   5  15
BRANCH   7  17
ATOM     17  C   UNL     1     144.580  95.254 133.975  1.00  0.00     0.000 A 
ATOM     18  C   UNL     1     145.958  95.035 134.093  1.00  0.00     0.010 A 
ATOM     19  C   UNL     1     143.709  94.162 133.871  1.00  0.00     0.010 A 
ATOM     20  C   UNL     1     146.458  93.733 134.136  1.00  0.00     0.001 A 
ATOM     21  C   UNL     1     144.215  92.861 133.915  1.00  0.00     0.001 A 
ATOM     22  C   UNL     1     145.587  92.648 134.051  1.00  0.00     0.000 A 
ENDBRANCH   7  17
TORSDOF 2
ENDMDL
MODEL 4
REMARK VINA RESULT:    -6.489      3.134      3.935
REMARK INTER + INTRA:          -7.462
REMARK INTER:                  -7.016
REMARK INTRA:                  -0.447
REMARK UNBOUND:                -0.404
REMARK SMILES CN1C(=O)C(O)N=C(c2ccccc2)c2cc(Cl)ccc21
REMARK SMILES IDX 1 1 2 2 3 3 4 4 5 5 7 6 8 7 15 8 16 9 17 10 18 11 19 12
REMARK SMILES IDX 20 13 21 14 6 15 9 17 10 18 14 19 11 20 13 21 12 22
REMARK H PARENT 6 16
ROOT
ATOM      1  C   UNL     1     138.257  97.306 131.540  1.00  0.00     0.153 C 
ATOM      2  N   UNL     1     139.601  97.789 131.835  1.00  0.00    -0.311 N 
ATOM      3  C   UNL     1     140.148  98.729 130.951  1.00  0.00     0.278 C 
ATOM      4  O   UNL     1     139.590  99.046 129.895  1.00  0.00    -0.269 OA
ATOM      5  C   UNL     1     141.477  99.411 131.384  1.00  0.00     0.323 C 
ATOM      6  N   UNL     1     142.533  98.430 131.189  1.00  0.00    -0.243 NA
ATOM      7  C   UNL     1     142.580  97.424 131.995  1.00  0.00     0.078 C 
ATOM      8  C   UNL     1     141.652  97.230 133.152  1.00  0.00     0.026 A 
ATOM      9  C   UNL     1     142.237  96.862 134.378  1.00  0.00     0.033 A 
ATOM     10  C   UNL     1     141.434  96.554 135.470  1.00  0.00     0.041 A 
ATOM     11  Cl  UNL     1     142.154  96.089 136.960  1.00  0.00    -0.084 Cl
ATOM     12  C   UNL     1     140.051  96.609 135.356  1.00  0.00     0.023 A 
ATOM     13  C   UNL     1     139.468  96.999 134.147  1.00  0.00     0.028 A 
ATOM     14  C   UNL     1     140.251  97.345 133.029  1.00  0.00     0.053 A 
ENDROOT
BRANCH   5  15
ATOM     15  O   UNL     1     141.696 100.591 130.627  1.00  0.00    -0.364 OA
ATOM     16  H   UNL     1     140.827 100.765 130.221  1.00  0.00     0.213 HD
ENDBRANCH   5  15
BRANCH   7  17
ATOM     17  C   UNL     1     143.640  96.397 131.744  1.00  0.00     0.000 A 
ATOM     18  C   UNL     1     144.956  96.670 132.138  1.00  0.00     0.010 A 
ATOM     19  C   UNL     1     143.345  95.188 131.100  1.00  0.00     0.010 A 
ATOM     20  C   UNL     1     145.963  95.730 131.915  1.00  0.00     0.001 A 
ATOM     21  C   UNL     1     144.356  94.250 130.880  1.00  0.00     0.001 A 
ATOM     22  C   UNL     1     145.662  94.520 131.290  1.00  0.00     0.000 A 
ENDBRANCH   7  17
TORSDOF 2
ENDMDL
MODEL 5
REMARK VINA RESULT:    -6.418      2.109      4.599
REMARK INTER + INTRA:          -7.385
REMARK INTER:                  -7.087
REMARK INTRA:                  -0.298
REMARK UNBOUND:                -0.404
REMARK SMILES CN1C(=O)C(O)N=C(c2ccccc2)c2cc(Cl)ccc21
REMARK SMILES IDX 1 1 2 2 3 3 4 4 5 5 7 6 8 7 15 8 16 9 17 10 18 11 19 12
REMARK SMILES IDX 20 13 21 14 6 15 9 17 10 18 14 19 11 20 13 21 12 22
REMARK H PARENT 6 16
ROOT
ATOM      1  C   UNL     1     143.500  99.092 133.628  1.00  0.00     0.153 C 
ATOM      2  N   UNL     1     142.824  98.045 134.385  1.00  0.00    -0.311 N 
ATOM      3  C   UNL     1     141.465  98.240 134.665  1.00  0.00     0.278 C 
ATOM      4  O   UNL     1     140.882  99.300 134.408  1.00  0.00    -0.269 OA
ATOM      5  C   UNL     1     140.691  97.033 135.268  1.00  0.00     0.323 C 
ATOM      6  N   UNL     1     141.090  96.936 136.663  1.00  0.00    -0.243 NA
ATOM      7  C   UNL     1     142.286  96.526 136.922  1.00  0.00     0.078 C 
ATOM      8  C   UNL     1     143.270  96.093 135.883  1.00  0.00     0.026 A 
ATOM      9  C   UNL     1     143.965  94.894 136.129  1.00  0.00     0.033 A 
ATOM     10  C   UNL     1     144.975  94.482 135.268  1.00  0.00     0.041 A 
ATOM     11  Cl  UNL     1     145.832  93.026 135.583  1.00  0.00    -0.084 Cl
ATOM     12  C   UNL     1     145.301  95.251 134.158  1.00  0.00     0.023 A 
ATOM     13  C   UNL     1     144.595  96.429 133.896  1.00  0.00     0.028 A 
ATOM     14  C   UNL     1     143.547  96.861 134.733  1.00  0.00     0.053 A 
ENDROOT
BRANCH   5  15
ATOM     15  O   UNL     1     139.292  97.222 135.124  1.00  0.00    -0.364 OA
ATOM     16  H   UNL     1     139.225  97.914 134.441  1.00  0.00     0.213 HD
ENDBRANCH   5  15
BRANCH   7  17
ATOM     17  C   UNL     1     142.697  96.485 138.362  1.00  0.00     0.000 A 
ATOM     18  C   UNL     1     141.747  96.131 139.328  1.00  0.00     0.010 A 
ATOM     19  C   UNL     1     143.998  96.821 138.757  1.00  0.00     0.010 A 
ATOM     20  C   UNL     1     142.104  96.086 140.676  1.00  0.00     0.001 A 
ATOM     21  C   UNL     1     144.351  96.774 140.107  1.00  0.00     0.001 A 
ATOM     22  C   UNL     1     143.406  96.403 141.065  1.00  0.00     0.000 A 
ENDBRANCH   7  17
TORSDOF 2
ENDMDL
MODEL 6
REMARK VINA RESULT:    -6.357      3.508      5.207
REMARK INTER + INTRA:          -7.319
REMARK INTER:                  -7.405
REMARK INTRA:                   0.086
REMARK UNBOUND:                -0.404
REMARK SMILES CN1C(=O)C(O)N=C(c2ccccc2)c2cc(Cl)ccc21
REMARK SMILES IDX 1 1 2 2 3 3 4 4 5 5 7 6 8 7 15 8 16 9 17 10 18 11 19 12
REMARK SMILES IDX 20 13 21 14 6 15 9 17 10 18 14 19 11 20 13 21 12 22
REMARK H PARENT 6 16
ROOT
ATOM      1  C   UNL     1     140.352  96.847 130.752  1.00  0.00     0.153 C 
ATOM      2  N   UNL     1     141.027  97.734 131.692  1.00  0.00    -0.311 N 
ATOM      3  C   UNL     1     142.427  97.766 131.642  1.00  0.00     0.278 C 
ATOM      4  O   UNL     1     143.082  96.992 130.936  1.00  0.00    -0.269 OA
ATOM      5  C   UNL     1     143.135  98.870 132.479  1.00  0.00     0.323 C 
ATOM      6  N   UNL     1     143.072  98.446 133.869  1.00  0.00    -0.243 NA
ATOM      7  C   UNL     1     141.926  98.483 134.460  1.00  0.00     0.078 C 
ATOM      8  C   UNL     1     140.668  98.987 133.827  1.00  0.00     0.026 A 
ATOM      9  C   UNL     1     139.882  99.868 134.592  1.00  0.00     0.033 A 
ATOM     10  C   UNL     1     138.646 100.292 134.119  1.00  0.00     0.041 A 
ATOM     11  Cl  UNL     1     137.683 101.355 135.065  1.00  0.00    -0.084 Cl
ATOM     12  C   UNL     1     138.181  99.847 132.888  1.00  0.00     0.023 A 
ATOM     13  C   UNL     1     138.971  98.991 132.114  1.00  0.00     0.028 A 
ATOM     14  C   UNL     1     140.241  98.565 132.550  1.00  0.00     0.053 A 
ENDROOT
BRANCH   5  15
ATOM     15  O   UNL     1     144.471  99.047 132.034  1.00  0.00    -0.364 OA
ATOM     16  H   UNL     1     144.446  99.908 131.578  1.00  0.00     0.213 HD
ENDBRANCH   5  15
BRANCH   7  17
ATOM     17  C   UNL     1     141.871  97.991 135.874  1.00  0.00     0.000 A 
ATOM     18  C   UNL     1     143.064  97.634 136.515  1.00  0.00     0.010 A 
ATOM     19  C   UNL     1     140.651  97.854 136.550  1.00  0.00     0.010 A 
ATOM     20  C   UNL     1     143.040  97.172 137.831  1.00  0.00     0.001 A 
ATOM     21  C   UNL     1     140.633  97.391 137.867  1.00  0.00     0.001 A 
ATOM     22  C   UNL     1     141.826  97.054 138.507  1.00  0.00     0.000 A 
ENDBRANCH   7  17
TORSDOF 2
ENDMDL
MODEL 7
REMARK VINA RESULT:    -6.298      3.318      5.475
REMARK INTER + INTRA:          -7.255
REMARK INTER:                  -6.812
REMARK INTRA:                  -0.443
REMARK UNBOUND:                -0.404
REMARK SMILES CN1C(=O)C(O)N=C(c2ccccc2)c2cc(Cl)ccc21
REMARK SMILES IDX 1 1 2 2 3 3 4 4 5 5 7 6 8 7 15 8 16 9 17 10 18 11 19 12
REMARK SMILES IDX 20 13 21 14 6 15 9 17 10 18 14 19 11 20 13 21 12 22
REMARK H PARENT 6 16
ROOT
ATOM      1  C   UNL     1     144.095  94.625 131.392  1.00  0.00     0.153 C 
ATOM      2  N   UNL     1     143.382  95.816 131.839  1.00  0.00    -0.311 N 
ATOM      3  C   UNL     1     144.127  96.997 131.958  1.00  0.00     0.278 C 
ATOM      4  O   UNL     1     145.355  97.019 131.825  1.00  0.00    -0.269 OA
ATOM      5  C   UNL     1     143.330  98.309 132.211  1.00  0.00     0.323 C 
ATOM      6  N   UNL     1     142.917  98.283 133.605  1.00  0.00    -0.243 NA
ATOM      7  C   UNL     1     141.995  97.448 133.947  1.00  0.00     0.078 C 
ATOM      8  C   UNL     1     141.285  96.542 132.993  1.00  0.00     0.026 A 
ATOM      9  C   UNL     1     139.884  96.475 133.107  1.00  0.00     0.033 A 
ATOM     10  C   UNL     1     139.163  95.573 132.332  1.00  0.00     0.041 A 
ATOM     11  Cl  UNL     1     137.453  95.484 132.487  1.00  0.00    -0.084 Cl
ATOM     12  C   UNL     1     139.822  94.736 131.442  1.00  0.00     0.023 A 
ATOM     13  C   UNL     1     141.211  94.818 131.309  1.00  0.00     0.028 A 
ATOM     14  C   UNL     1     141.970  95.739 132.057  1.00  0.00     0.053 A 
ENDROOT
BRANCH   5  15
ATOM     15  O   UNL     1     144.133  99.439 131.911  1.00  0.00    -0.364 OA
ATOM     16  H   UNL     1     144.051  99.526 130.944  1.00  0.00     0.213 HD
ENDBRANCH   5  15
BRANCH   7  17
ATOM     17  C   UNL     1     141.622  97.399 135.397  1.00  0.00     0.000 A 
ATOM     18  C   UNL     1     142.140  96.372 136.196  1.00  0.00     0.010 A 
ATOM     19  C   UNL     1     140.747  98.340 135.956  1.00  0.00     0.010 A 
ATOM     20  C   UNL     1     141.808  96.303 137.550  1.00  0.00     0.001 A 
ATOM     21  C   UNL     1     140.419  98.267 137.311  1.00  0.00     0.001 A 
ATOM     22  C   UNL     1     140.951  97.252 138.107  1.00  0.00     0.000 A 
ENDBRANCH   7  17
TORSDOF 2
ENDMDL
MODEL 8
REMARK VINA RESULT:    -6.035      3.492      5.537
REMARK INTER + INTRA:          -6.968
REMARK INTER:                  -6.615
REMARK INTRA:                  -0.353
REMARK UNBOUND:                -0.404
REMARK SMILES CN1C(=O)C(O)N=C(c2ccccc2)c2cc(Cl)ccc21
REMARK SMILES IDX 1 1 2 2 3 3 4 4 5 5 7 6 8 7 15 8 16 9 17 10 18 11 19 12
REMARK SMILES IDX 20 13 21 14 6 15 9 17 10 18 14 19 11 20 13 21 12 22
REMARK H PARENT 6 16
ROOT
ATOM      1  C   UNL     1     141.935  95.757 137.742  1.00  0.00     0.153 C 
ATOM      2  N   UNL     1     141.606  96.658 136.644  1.00  0.00    -0.311 N 
ATOM      3  C   UNL     1     140.578  97.584 136.868  1.00  0.00     0.278 C 
ATOM      4  O   UNL     1     139.883  97.566 137.889  1.00  0.00    -0.269 OA
ATOM      5  C   UNL     1     140.380  98.689 135.791  1.00  0.00     0.323 C 
ATOM      6  N   UNL     1     139.729  98.054 134.656  1.00  0.00    -0.243 NA
ATOM      7  C   UNL     1     140.422  97.234 133.942  1.00  0.00     0.078 C 
ATOM      8  C   UNL     1     141.869  96.934 134.172  1.00  0.00     0.026 A 
ATOM      9  C   UNL     1     142.704  96.936 133.040  1.00  0.00     0.033 A 
ATOM     10  C   UNL     1     144.037  96.559 133.154  1.00  0.00     0.041 A 
ATOM     11  Cl  UNL     1     145.049  96.547 131.764  1.00  0.00    -0.084 Cl
ATOM     12  C   UNL     1     144.551  96.179 134.387  1.00  0.00     0.023 A 
ATOM     13  C   UNL     1     143.730  96.200 135.519  1.00  0.00     0.028 A 
ATOM     14  C   UNL     1     142.383  96.604 135.444  1.00  0.00     0.053 A 
ENDROOT
BRANCH   5  15
ATOM     15  O   UNL     1     139.614  99.761 136.318  1.00  0.00    -0.364 OA
ATOM     16  H   UNL     1     140.188 100.130 137.013  1.00  0.00     0.213 HD
ENDBRANCH   5  15
BRANCH   7  17
ATOM     17  C   UNL     1     139.718  96.548 132.812  1.00  0.00     0.000 A 
ATOM     18  C   UNL     1     139.925  95.177 132.615  1.00  0.00     0.010 A 
ATOM     19  C   UNL     1     138.884  97.257 131.937  1.00  0.00     0.010 A 
ATOM     20  C   UNL     1     139.281  94.515 131.569  1.00  0.00     0.001 A 
ATOM     21  C   UNL     1     138.241  96.590 130.893  1.00  0.00     0.001 A 
ATOM     22  C   UNL     1     138.437  95.220 130.711  1.00  0.00     0.000 A 
ENDBRANCH   7  17
TORSDOF 2
ENDMDL
MODEL 9
REMARK VINA RESULT:    -5.975      3.291      5.005
REMARK INTER + INTRA:          -6.903
REMARK INTER:                  -6.418
REMARK INTRA:                  -0.485
REMARK UNBOUND:                -0.404
REMARK SMILES CN1C(=O)C(O)N=C(c2ccccc2)c2cc(Cl)ccc21
REMARK SMILES IDX 1 1 2 2 3 3 4 4 5 5 7 6 8 7 15 8 16 9 17 10 18 11 19 12
REMARK SMILES IDX 20 13 21 14 6 15 9 17 10 18 14 19 11 20 13 21 12 22
REMARK H PARENT 6 16
ROOT
ATOM      1  C   UNL     1     140.853  99.214 131.831  1.00  0.00     0.153 C 
ATOM      2  N   UNL     1     140.732  97.963 132.570  1.00  0.00    -0.311 N 
ATOM      3  C   UNL     1     139.482  97.678 133.137  1.00  0.00     0.278 C 
ATOM      4  O   UNL     1     138.554  98.493 133.136  1.00  0.00    -0.269 OA
ATOM      5  C   UNL     1     139.287  96.251 133.726  1.00  0.00     0.323 C 
ATOM      6  N   UNL     1     140.005  96.219 134.990  1.00  0.00    -0.243 NA
ATOM      7  C   UNL     1     141.295  96.219 134.952  1.00  0.00     0.078 C 
ATOM      8  C   UNL     1     142.099  96.195 133.693  1.00  0.00     0.026 A 
ATOM      9  C   UNL     1     143.173  95.287 133.644  1.00  0.00     0.033 A 
ATOM     10  C   UNL     1     144.036  95.283 132.554  1.00  0.00     0.041 A 
ATOM     11  Cl  UNL     1     145.355  94.183 132.507  1.00  0.00    -0.084 Cl
ATOM     12  C   UNL     1     143.840  96.174 131.507  1.00  0.00     0.023 A 
ATOM     13  C   UNL     1     142.759  97.060 131.540  1.00  0.00     0.028 A 
ATOM     14  C   UNL     1     141.850  97.073 132.616  1.00  0.00     0.053 A 
ENDROOT
BRANCH   5  15
ATOM     15  O   UNL     1     137.905  95.969 133.887  1.00  0.00    -0.364 OA
ATOM     16  H   UNL     1     137.810  95.078 133.504  1.00  0.00     0.213 HD
ENDBRANCH   5  15
BRANCH   7  17
ATOM     17  C   UNL     1     142.016  96.242 136.265  1.00  0.00     0.000 A 
ATOM     18  C   UNL     1     142.022  95.086 137.055  1.00  0.00     0.010 A 
ATOM     19  C   UNL     1     142.654  97.401 136.725  1.00  0.00     0.010 A 
ATOM     20  C   UNL     1     142.686  95.081 138.282  1.00  0.00     0.001 A 
ATOM     21  C   UNL     1     143.318  97.390 137.954  1.00  0.00     0.001 A 
ATOM     22  C   UNL     1     143.336  96.231 138.729  1.00  0.00     0.000 A 
ENDBRANCH   7  17
TORSDOF 2
ENDMDL
