MODEL 1
REMARK VINA RESULT:    -8.536      0.000      0.000
REMARK INTER + INTRA:         -11.046
REMARK INTER:                 -10.532
REMARK INTRA:                  -0.514
REMARK UNBOUND:                -0.514
REMARK SMILES CCN(C(C)=O)c1cccc(-c2ccnc3c(C#N)cnn23)c1
REMARK SMILES IDX 3 1 2 2 1 3 4 4 6 5 5 6 7 7 8 8 23 9 9 10 11 11 10 12 12 13
REMARK SMILES IDX 13 14 22 15 14 16 21 17 16 18 15 19 20 20 17 21 18 22 19 23
REMARK H PARENT
ROOT
ATOM      1  N   UNL     1     143.286  95.865 137.881  1.00  0.00    -0.313 N 
ENDROOT
BRANCH   1   2
ATOM      2  C   UNL     1     142.105  96.155 137.046  1.00  0.00     0.122 C 
ATOM      3  C   UNL     1     141.559  97.560 137.275  1.00  0.00     0.028 C 
ENDBRANCH   1   2
BRANCH   1   4
ATOM      4  C   UNL     1     144.561  95.733 137.293  1.00  0.00     0.223 C 
ATOM      5  O   UNL     1     144.877  96.134 136.170  1.00  0.00    -0.275 OA
ATOM      6  C   UNL     1     145.630  95.047 138.116  1.00  0.00     0.115 C 
ENDBRANCH   1   4
BRANCH   1   7
ATOM      7  C   UNL     1     143.078  95.645 139.303  1.00  0.00     0.044 A 
ATOM      8  C   UNL     1     142.588  94.430 139.800  1.00  0.00     0.026 A 
ATOM      9  C   UNL     1     143.392  96.634 140.257  1.00  0.00     0.036 A 
ATOM     10  C   UNL     1     142.385  94.219 141.168  1.00  0.00     0.003 A 
ATOM     11  C   UNL     1     143.200  96.440 141.639  1.00  0.00     0.002 A 
ATOM     12  C   UNL     1     142.683  95.221 142.084  1.00  0.00     0.010 A 
BRANCH  11  13
ATOM     13  C   UNL     1     143.542  97.510 142.603  1.00  0.00     0.076 C 
ATOM     14  C   UNL     1     142.615  97.896 143.503  1.00  0.00     0.049 C 
ATOM     15  N   UNL     1     144.811  98.123 142.627  1.00  0.00    -0.213 N 
ATOM     16  C   UNL     1     143.025  98.965 144.449  1.00  0.00     0.116 C 
ATOM     17  N   UNL     1     145.891  97.874 141.830  1.00  0.00    -0.173 NA
ATOM     18  C   UNL     1     145.100  99.132 143.565  1.00  0.00     0.173 A 
ATOM     19  N   UNL     1     144.181  99.551 144.490  1.00  0.00    -0.236 NA
ATOM     20  C   UNL     1     146.828  98.726 142.248  1.00  0.00     0.157 A 
ATOM     21  C   UNL     1     146.397  99.521 143.314  1.00  0.00     0.117 A 
ATOM     22  C   UNL     1     147.136 100.520 144.003  1.00  0.00     0.105 C 
ATOM     23  N   UNL     1     147.777 101.327 144.540  1.00  0.00    -0.192 NA
ENDBRANCH  11  13
ENDBRANCH   1   7
TORSDOF 4
ENDMDL
MODEL 2
REMARK VINA RESULT:    -8.460      2.307      6.884
REMARK INTER + INTRA:         -10.952
REMARK INTER:                 -10.409
REMARK INTRA:                  -0.543
REMARK UNBOUND:                -0.514
REMARK SMILES CCN(C(C)=O)c1cccc(-c2ccnc3c(C#N)cnn23)c1
REMARK SMILES IDX 3 1 2 2 1 3 4 4 6 5 5 6 7 7 8 8 23 9 9 10 11 11 10 12 12 13
REMARK SMILES IDX 13 14 22 15 14 16 21 17 16 18 15 19 20 20 17 21 18 22 19 23
REMARK H PARENT
ROOT
ATOM      1  N   UNL     1     144.882  97.988 143.415  1.00  0.00    -0.313 N 
ENDROOT
BRANCH   1   2
ATOM      2  C   UNL     1     144.272  98.557 144.631  1.00  0.00     0.122 C 
ATOM      3  C   UNL     1     143.152  99.542 144.316  1.00  0.00     0.028 C 
ENDBRANCH   1   2
BRANCH   1   4
ATOM      4  C   UNL     1     146.219  98.287 143.080  1.00  0.00     0.223 C 
ATOM      5  O   UNL     1     147.188  97.550 143.277  1.00  0.00    -0.275 OA
ATOM      6  C   UNL     1     146.481  99.623 142.417  1.00  0.00     0.115 C 
ENDBRANCH   1   4
BRANCH   1   7
ATOM      7  C   UNL     1     144.042  97.184 142.543  1.00  0.00     0.044 A 
ATOM      8  C   UNL     1     142.908  96.513 143.021  1.00  0.00     0.026 A 
ATOM      9  C   UNL     1     144.308  97.066 141.164  1.00  0.00     0.036 A 
ATOM     10  C   UNL     1     142.101  95.736 142.182  1.00  0.00     0.003 A 
ATOM     11  C   UNL     1     143.505  96.294 140.301  1.00  0.00     0.002 A 
ATOM     12  C   UNL     1     142.401  95.621 140.830  1.00  0.00     0.010 A 
BRANCH  11  13
ATOM     13  C   UNL     1     143.827  96.198 138.860  1.00  0.00     0.076 C 
ATOM     14  C   UNL     1     144.883  95.454 138.476  1.00  0.00     0.049 C 
ATOM     15  N   UNL     1     143.051  96.839 137.872  1.00  0.00    -0.213 N 
ATOM     16  C   UNL     1     145.144  95.389 137.016  1.00  0.00     0.116 C 
ATOM     17  N   UNL     1     141.939  97.614 138.035  1.00  0.00    -0.173 NA
ATOM     18  C   UNL     1     143.384  96.716 136.510  1.00  0.00     0.173 A 
ATOM     19  N   UNL     1     144.453  95.973 136.087  1.00  0.00    -0.236 NA
ATOM     20  C   UNL     1     141.599  97.986 136.800  1.00  0.00     0.157 A 
ATOM     21  C   UNL     1     142.451  97.461 135.824  1.00  0.00     0.117 A 
ATOM     22  C   UNL     1     142.374  97.647 134.417  1.00  0.00     0.105 C 
ATOM     23  N   UNL     1     142.274  97.823 133.274  1.00  0.00    -0.192 NA
ENDBRANCH  11  13
ENDBRANCH   1   7
TORSDOF 4
ENDMDL
MODEL 3
REMARK VINA RESULT:    -7.534      1.857      2.943
REMARK INTER + INTRA:          -9.810
REMARK INTER:                  -9.652
REMARK INTRA:                  -0.158
REMARK UNBOUND:                -0.514
REMARK SMILES CCN(C(C)=O)c1cccc(-c2ccnc3c(C#N)cnn23)c1
REMARK SMILES IDX 3 1 2 2 1 3 4 4 6 5 5 6 7 7 8 8 23 9 9 10 11 11 10 12 12 13
REMARK SMILES IDX 13 14 22 15 14 16 21 17 16 18 15 19 20 20 17 21 18 22 19 23
REMARK H PARENT
ROOT
ATOM      1  N   UNL     1     142.747  95.274 140.626  1.00  0.00    -0.313 N 
ENDROOT
BRANCH   1   2
ATOM      2  C   UNL     1     142.417  95.938 139.351  1.00  0.00     0.122 C 
ATOM      3  C   UNL     1     143.658  96.386 138.587  1.00  0.00     0.028 C 
ENDBRANCH   1   2
BRANCH   1   4
ATOM      4  C   UNL     1     143.071  93.902 140.653  1.00  0.00     0.223 C 
ATOM      5  O   UNL     1     144.212  93.437 140.708  1.00  0.00    -0.275 OA
ATOM      6  C   UNL     1     141.918  92.922 140.619  1.00  0.00     0.115 C 
ENDBRANCH   1   4
BRANCH   1   7
ATOM      7  C   UNL     1     142.650  96.056 141.847  1.00  0.00     0.044 A 
ATOM      8  C   UNL     1     141.547  95.953 142.707  1.00  0.00     0.026 A 
ATOM      9  C   UNL     1     143.677  96.935 142.246  1.00  0.00     0.036 A 
ATOM     10  C   UNL     1     141.452  96.708 143.881  1.00  0.00     0.003 A 
ATOM     11  C   UNL     1     143.604  97.700 143.427  1.00  0.00     0.002 A 
ATOM     12  C   UNL     1     142.472  97.583 144.237  1.00  0.00     0.010 A 
BRANCH  11  13
ATOM     13  C   UNL     1     144.707  98.612 143.802  1.00  0.00     0.076 C 
ATOM     14  C   UNL     1     144.601  99.330 144.938  1.00  0.00     0.049 C 
ATOM     15  N   UNL     1     145.876  98.738 143.023  1.00  0.00    -0.213 N 
ATOM     16  C   UNL     1     145.747 100.216 145.262  1.00  0.00     0.116 C 
ATOM     17  N   UNL     1     146.197  98.097 141.861  1.00  0.00    -0.173 NA
ATOM     18  C   UNL     1     146.907  99.611 143.418  1.00  0.00     0.173 A 
ATOM     19  N   UNL     1     146.830 100.358 144.563  1.00  0.00    -0.236 NA
ATOM     20  C   UNL     1     147.394  98.577 141.526  1.00  0.00     0.157 A 
ATOM     21  C   UNL     1     147.880  99.509 142.449  1.00  0.00     0.117 A 
ATOM     22  C   UNL     1     149.118 100.205 142.406  1.00  0.00     0.105 C 
ATOM     23  N   UNL     1     150.141 100.751 142.333  1.00  0.00    -0.192 NA
ENDBRANCH  11  13
ENDBRANCH   1   7
TORSDOF 4
ENDMDL
MODEL 4
REMARK VINA RESULT:    -7.510      2.006      6.576
REMARK INTER + INTRA:          -9.780
REMARK INTER:                  -9.404
REMARK INTRA:                  -0.376
REMARK UNBOUND:                -0.514
REMARK SMILES CCN(C(C)=O)c1cccc(-c2ccnc3c(C#N)cnn23)c1
REMARK SMILES IDX 3 1 2 2 1 3 4 4 6 5 5 6 7 7 8 8 23 9 9 10 11 11 10 12 12 13
REMARK SMILES IDX 13 14 22 15 14 16 21 17 16 18 15 19 20 20 17 21 18 22 19 23
REMARK H PARENT
ROOT
ATOM      1  N   UNL     1     144.868  98.073 143.178  1.00  0.00    -0.313 N 
ENDROOT
BRANCH   1   2
ATOM      2  C   UNL     1     144.519  98.686 144.473  1.00  0.00     0.122 C 
ATOM      3  C   UNL     1     143.275  99.563 144.388  1.00  0.00     0.028 C 
ENDBRANCH   1   2
BRANCH   1   4
ATOM      4  C   UNL     1     146.090  98.383 142.547  1.00  0.00     0.223 C 
ATOM      5  O   UNL     1     146.869  97.564 142.054  1.00  0.00    -0.275 OA
ATOM      6  C   UNL     1     146.469  99.846 142.463  1.00  0.00     0.115 C 
ENDBRANCH   1   4
BRANCH   1   7
ATOM      7  C   UNL     1     143.883  97.211 142.545  1.00  0.00     0.044 A 
ATOM      8  C   UNL     1     142.945  96.485 143.292  1.00  0.00     0.026 A 
ATOM      9  C   UNL     1     143.801  97.089 141.143  1.00  0.00     0.036 A 
ATOM     10  C   UNL     1     141.999  95.653 142.683  1.00  0.00     0.003 A 
ATOM     11  C   UNL     1     142.852  96.261 140.510  1.00  0.00     0.002 A 
ATOM     12  C   UNL     1     141.956  95.535 141.299  1.00  0.00     0.010 A 
BRANCH  11  13
ATOM     13  C   UNL     1     142.806  96.162 139.034  1.00  0.00     0.076 C 
ATOM     14  C   UNL     1     141.701  96.580 138.387  1.00  0.00     0.049 C 
ATOM     15  N   UNL     1     143.890  95.666 138.280  1.00  0.00    -0.213 N 
ATOM     16  C   UNL     1     141.724  96.465 136.907  1.00  0.00     0.116 C 
ATOM     17  N   UNL     1     145.099  95.213 138.725  1.00  0.00    -0.173 NA
ATOM     18  C   UNL     1     143.811  95.595 136.877  1.00  0.00     0.173 A 
ATOM     19  N   UNL     1     142.702  96.007 136.188  1.00  0.00    -0.236 NA
ATOM     20  C   UNL     1     145.752  94.847 137.622  1.00  0.00     0.157 A 
ATOM     21  C   UNL     1     145.009  95.062 136.457  1.00  0.00     0.117 A 
ATOM     22  C   UNL     1     145.402  94.795 135.118  1.00  0.00     0.105 C 
ATOM     23  N   UNL     1     145.764  94.562 134.039  1.00  0.00    -0.192 NA
ENDBRANCH  11  13
ENDBRANCH   1   7
TORSDOF 4
ENDMDL
MODEL 5
REMARK VINA RESULT:    -6.986      3.180      7.751
REMARK INTER + INTRA:          -9.133
REMARK INTER:                  -8.898
REMARK INTRA:                  -0.235
REMARK UNBOUND:                -0.514
REMARK SMILES CCN(C(C)=O)c1cccc(-c2ccnc3c(C#N)cnn23)c1
REMARK SMILES IDX 3 1 2 2 1 3 4 4 6 5 5 6 7 7 8 8 23 9 9 10 11 11 10 12 12 13
REMARK SMILES IDX 13 14 22 15 14 16 21 17 16 18 15 19 20 20 17 21 18 22 19 23
REMARK H PARENT
ROOT
ATOM      1  N   UNL     1     142.646  96.191 142.383  1.00  0.00    -0.313 N 
ENDROOT
BRANCH   1   2
ATOM      2  C   UNL     1     143.249  96.920 143.515  1.00  0.00     0.122 C 
ATOM      3  C   UNL     1     142.693  98.332 143.662  1.00  0.00     0.028 C 
ENDBRANCH   1   2
BRANCH   1   4
ATOM      4  C   UNL     1     141.624  95.246 142.606  1.00  0.00     0.223 C 
ATOM      5  O   UNL     1     141.376  94.277 141.886  1.00  0.00    -0.275 OA
ATOM      6  C   UNL     1     140.768  95.437 143.840  1.00  0.00     0.115 C 
ENDBRANCH   1   4
BRANCH   1   7
ATOM      7  C   UNL     1     143.193  96.421 141.056  1.00  0.00     0.044 A 
ATOM      8  C   UNL     1     144.484  96.933 140.865  1.00  0.00     0.026 A 
ATOM      9  C   UNL     1     142.461  96.109 139.892  1.00  0.00     0.036 A 
ATOM     10  C   UNL     1     145.009  97.157 139.587  1.00  0.00     0.003 A 
ATOM     11  C   UNL     1     142.973  96.322 138.597  1.00  0.00     0.002 A 
ATOM     12  C   UNL     1     144.256  96.860 138.458  1.00  0.00     0.010 A 
BRANCH  11  13
ATOM     13  C   UNL     1     142.166  95.981 137.404  1.00  0.00     0.076 C 
ATOM     14  C   UNL     1     142.115  94.698 136.997  1.00  0.00     0.049 C 
ATOM     15  N   UNL     1     141.431  96.952 136.692  1.00  0.00    -0.213 N 
ATOM     16  C   UNL     1     141.279  94.422 135.802  1.00  0.00     0.116 C 
ATOM     17  N   UNL     1     141.326  98.290 136.940  1.00  0.00    -0.173 NA
ATOM     18  C   UNL     1     140.669  96.587 135.567  1.00  0.00     0.173 A 
ATOM     19  N   UNL     1     140.598  95.293 135.124  1.00  0.00    -0.236 NA
ATOM     20  C   UNL     1     140.532  98.754 135.975  1.00  0.00     0.157 A 
ATOM     21  C   UNL     1     140.096  97.751 135.105  1.00  0.00     0.117 A 
ATOM     22  C   UNL     1     139.239  97.892 133.980  1.00  0.00     0.105 C 
ATOM     23  N   UNL     1     138.534  98.052 133.071  1.00  0.00    -0.192 NA
ENDBRANCH  11  13
ENDBRANCH   1   7
TORSDOF 4
ENDMDL
MODEL 6
REMARK VINA RESULT:    -6.907      2.278      3.779
REMARK INTER + INTRA:          -9.036
REMARK INTER:                  -8.216
REMARK INTRA:                  -0.820
REMARK UNBOUND:                -0.514
REMARK SMILES CCN(C(C)=O)c1cccc(-c2ccnc3c(C#N)cnn23)c1
REMARK SMILES IDX 3 1 2 2 1 3 4 4 6 5 5 6 7 7 8 8 23 9 9 10 11 11 10 12 12 13
REMARK SMILES IDX 13 14 22 15 14 16 21 17 16 18 15 19 20 20 17 21 18 22 19 23
REMARK H PARENT
ROOT
ATOM      1  N   UNL     1     142.400  97.917 135.300  1.00  0.00    -0.313 N 
ENDROOT
BRANCH   1   2
ATOM      2  C   UNL     1     143.221  98.736 134.389  1.00  0.00     0.122 C 
ATOM      3  C   UNL     1     142.774  98.619 132.936  1.00  0.00     0.028 C 
ENDBRANCH   1   2
BRANCH   1   4
ATOM      4  C   UNL     1     140.996  98.055 135.315  1.00  0.00     0.223 C 
ATOM      5  O   UNL     1     140.383  99.114 135.462  1.00  0.00    -0.275 OA
ATOM      6  C   UNL     1     140.179  96.795 135.125  1.00  0.00     0.115 C 
ENDBRANCH   1   4
BRANCH   1   7
ATOM      7  C   UNL     1     143.086  97.032 136.226  1.00  0.00     0.044 A 
ATOM      8  C   UNL     1     143.998  96.061 135.786  1.00  0.00     0.026 A 
ATOM      9  C   UNL     1     142.894  97.127 137.619  1.00  0.00     0.036 A 
ATOM     10  C   UNL     1     144.656  95.207 136.677  1.00  0.00     0.003 A 
ATOM     11  C   UNL     1     143.551  96.281 138.534  1.00  0.00     0.002 A 
ATOM     12  C   UNL     1     144.430  95.311 138.045  1.00  0.00     0.010 A 
BRANCH  11  13
ATOM     13  C   UNL     1     143.314  96.417 139.989  1.00  0.00     0.076 C 
ATOM     14  C   UNL     1     142.241  95.812 140.534  1.00  0.00     0.049 C 
ATOM     15  N   UNL     1     144.188  97.140 140.828  1.00  0.00    -0.213 N 
ATOM     16  C   UNL     1     142.067  95.978 141.999  1.00  0.00     0.116 C 
ATOM     17  N   UNL     1     145.332  97.805 140.493  1.00  0.00    -0.173 NA
ATOM     18  C   UNL     1     143.933  97.240 142.208  1.00  0.00     0.173 A 
ATOM     19  N   UNL     1     142.849  96.641 142.793  1.00  0.00    -0.236 NA
ATOM     20  C   UNL     1     145.770  98.328 141.639  1.00  0.00     0.157 A 
ATOM     21  C   UNL     1     144.950  98.010 142.726  1.00  0.00     0.117 A 
ATOM     22  C   UNL     1     145.125  98.392 144.083  1.00  0.00     0.105 C 
ATOM     23  N   UNL     1     145.306  98.726 145.181  1.00  0.00    -0.192 NA
ENDBRANCH  11  13
ENDBRANCH   1   7
TORSDOF 4
ENDMDL
MODEL 7
REMARK VINA RESULT:    -6.851      3.611      8.404
REMARK INTER + INTRA:          -8.967
REMARK INTER:                  -8.315
REMARK INTRA:                  -0.652
REMARK UNBOUND:                -0.514
REMARK SMILES CCN(C(C)=O)c1cccc(-c2ccnc3c(C#N)cnn23)c1
REMARK SMILES IDX 3 1 2 2 1 3 4 4 6 5 5 6 7 7 8 8 23 9 9 10 11 11 10 12 12 13
REMARK SMILES IDX 13 14 22 15 14 16 21 17 16 18 15 19 20 20 17 21 18 22 19 23
REMARK H PARENT
ROOT
ATOM      1  N   UNL     1     142.133  95.793 141.163  1.00  0.00    -0.313 N 
ENDROOT
BRANCH   1   2
ATOM      2  C   UNL     1     142.119  96.887 142.151  1.00  0.00     0.122 C 
ATOM      3  C   UNL     1     143.316  96.838 143.094  1.00  0.00     0.028 C 
ENDBRANCH   1   2
BRANCH   1   4
ATOM      4  C   UNL     1     141.693  94.502 141.520  1.00  0.00     0.223 C 
ATOM      5  O   UNL     1     140.843  94.247 142.376  1.00  0.00    -0.275 OA
ATOM      6  C   UNL     1     142.314  93.335 140.783  1.00  0.00     0.115 C 
ENDBRANCH   1   4
BRANCH   1   7
ATOM      7  C   UNL     1     142.686  96.070 139.847  1.00  0.00     0.044 A 
ATOM      8  C   UNL     1     144.059  95.966 139.584  1.00  0.00     0.026 A 
ATOM      9  C   UNL     1     141.862  96.426 138.760  1.00  0.00     0.036 A 
ATOM     10  C   UNL     1     144.591  96.236 138.318  1.00  0.00     0.003 A 
ATOM     11  C   UNL     1     142.377  96.696 137.477  1.00  0.00     0.002 A 
ATOM     12  C   UNL     1     143.756  96.606 137.270  1.00  0.00     0.010 A 
BRANCH  11  13
ATOM     13  C   UNL     1     141.472  97.070 136.366  1.00  0.00     0.076 C 
ATOM     14  C   UNL     1     140.999  98.330 136.308  1.00  0.00     0.049 C 
ATOM     15  N   UNL     1     141.108  96.157 135.355  1.00  0.00    -0.213 N 
ATOM     16  C   UNL     1     140.107  98.643 135.163  1.00  0.00     0.116 C 
ATOM     17  N   UNL     1     141.484  94.853 135.210  1.00  0.00    -0.173 NA
ATOM     18  C   UNL     1     140.251  96.553 134.311  1.00  0.00     0.173 A 
ATOM     19  N   UNL     1     139.749  97.824 134.224  1.00  0.00    -0.236 NA
ATOM     20  C   UNL     1     140.857  94.437 134.110  1.00  0.00     0.157 A 
ATOM     21  C   UNL     1     140.088  95.442 133.515  1.00  0.00     0.117 A 
ATOM     22  C   UNL     1     139.303  95.346 132.334  1.00  0.00     0.105 C 
ATOM     23  N   UNL     1     138.676  95.225 131.364  1.00  0.00    -0.192 NA
ENDBRANCH  11  13
ENDBRANCH   1   7
TORSDOF 4
ENDMDL
MODEL 8
REMARK VINA RESULT:    -6.831      4.444      7.451
REMARK INTER + INTRA:          -8.942
REMARK INTER:                  -8.303
REMARK INTRA:                  -0.639
REMARK UNBOUND:                -0.514
REMARK SMILES CCN(C(C)=O)c1cccc(-c2ccnc3c(C#N)cnn23)c1
REMARK SMILES IDX 3 1 2 2 1 3 4 4 6 5 5 6 7 7 8 8 23 9 9 10 11 11 10 12 12 13
REMARK SMILES IDX 13 14 22 15 14 16 21 17 16 18 15 19 20 20 17 21 18 22 19 23
REMARK H PARENT
ROOT
ATOM      1  N   UNL     1     141.028  97.448 131.297  1.00  0.00    -0.313 N 
ENDROOT
BRANCH   1   2
ATOM      2  C   UNL     1     141.420  96.256 130.522  1.00  0.00     0.122 C 
ATOM      3  C   UNL     1     141.113  94.956 131.256  1.00  0.00     0.028 C 
ENDBRANCH   1   2
BRANCH   1   4
ATOM      4  C   UNL     1     139.950  98.253 130.874  1.00  0.00     0.223 C 
ATOM      5  O   UNL     1     140.048  99.302 130.234  1.00  0.00    -0.275 OA
ATOM      6  C   UNL     1     138.557  97.779 131.230  1.00  0.00     0.115 C 
ENDBRANCH   1   4
BRANCH   1   7
ATOM      7  C   UNL     1     141.833  97.804 132.454  1.00  0.00     0.044 A 
ATOM      8  C   UNL     1     143.096  98.398 132.323  1.00  0.00     0.026 A 
ATOM      9  C   UNL     1     141.368  97.600 133.769  1.00  0.00     0.036 A 
ATOM     10  C   UNL     1     143.873  98.738 133.436  1.00  0.00     0.003 A 
ATOM     11  C   UNL     1     142.132  97.940 134.903  1.00  0.00     0.002 A 
ATOM     12  C   UNL     1     143.397  98.504 134.721  1.00  0.00     0.010 A 
BRANCH  11  13
ATOM     13  C   UNL     1     141.602  97.703 136.265  1.00  0.00     0.076 C 
ATOM     14  C   UNL     1     140.426  98.261 136.613  1.00  0.00     0.049 C 
ATOM     15  N   UNL     1     142.276  96.894 137.203  1.00  0.00    -0.213 N 
ATOM     16  C   UNL     1     139.945  97.975 137.988  1.00  0.00     0.116 C 
ATOM     17  N   UNL     1     143.456  96.223 137.056  1.00  0.00    -0.173 NA
ATOM     18  C   UNL     1     141.736  96.686 138.486  1.00  0.00     0.173 A 
ATOM     19  N   UNL     1     140.546  97.242 138.873  1.00  0.00    -0.236 NA
ATOM     20  C   UNL     1     143.658  95.627 138.231  1.00  0.00     0.157 A 
ATOM     21  C   UNL     1     142.631  95.875 139.146  1.00  0.00     0.117 A 
ATOM     22  C   UNL     1     142.523  95.392 140.478  1.00  0.00     0.105 C 
ATOM     23  N   UNL     1     142.474  94.973 141.560  1.00  0.00    -0.192 NA
ENDBRANCH  11  13
ENDBRANCH   1   7
TORSDOF 4
ENDMDL
MODEL 9
REMARK VINA RESULT:    -6.586      3.442      6.478
REMARK INTER + INTRA:          -8.641
REMARK INTER:                  -7.897
REMARK INTRA:                  -0.744
REMARK UNBOUND:                -0.514
REMARK SMILES CCN(C(C)=O)c1cccc(-c2ccnc3c(C#N)cnn23)c1
REMARK SMILES IDX 3 1 2 2 1 3 4 4 6 5 5 6 7 7 8 8 23 9 9 10 11 11 10 12 12 13
REMARK SMILES IDX 13 14 22 15 14 16 21 17 16 18 15 19 20 20 17 21 18 22 19 23
REMARK H PARENT
ROOT
ATOM      1  N   UNL     1     140.994  98.520 133.135  1.00  0.00    -0.313 N 
ENDROOT
BRANCH   1   2
ATOM      2  C   UNL     1     140.061  99.487 133.744  1.00  0.00     0.122 C 
ATOM      3  C   UNL     1     138.629  99.303 133.254  1.00  0.00     0.028 C 
ENDBRANCH   1   2
BRANCH   1   4
ATOM      4  C   UNL     1     141.630  98.816 131.912  1.00  0.00     0.223 C 
ATOM      5  O   UNL     1     141.117  99.417 130.965  1.00  0.00    -0.275 OA
ATOM      6  C   UNL     1     143.066  98.362 131.756  1.00  0.00     0.115 C 
ENDBRANCH   1   4
BRANCH   1   7
ATOM      7  C   UNL     1     141.171  97.236 133.793  1.00  0.00     0.044 A 
ATOM      8  C   UNL     1     140.541  96.073 133.328  1.00  0.00     0.026 A 
ATOM      9  C   UNL     1     142.013  97.090 134.914  1.00  0.00     0.036 A 
ATOM     10  C   UNL     1     140.708  94.837 133.963  1.00  0.00     0.003 A 
ATOM     11  C   UNL     1     142.200  95.854 135.564  1.00  0.00     0.002 A 
ATOM     12  C   UNL     1     141.528  94.728 135.080  1.00  0.00     0.010 A 
BRANCH  11  13
ATOM     13  C   UNL     1     143.092  95.750 136.740  1.00  0.00     0.076 C 
ATOM     14  C   UNL     1     144.384  95.415 136.551  1.00  0.00     0.049 C 
ATOM     15  N   UNL     1     142.642  96.013 138.051  1.00  0.00    -0.213 N 
ATOM     16  C   UNL     1     145.227  95.339 137.770  1.00  0.00     0.116 C 
ATOM     17  N   UNL     1     141.395  96.384 138.463  1.00  0.00    -0.173 NA
ATOM     18  C   UNL     1     143.524  95.912 139.143  1.00  0.00     0.173 A 
ATOM     19  N   UNL     1     144.840  95.569 138.986  1.00  0.00    -0.236 NA
ATOM     20  C   UNL     1     141.491  96.491 139.788  1.00  0.00     0.157 A 
ATOM     21  C   UNL     1     142.778  96.214 140.260  1.00  0.00     0.117 A 
ATOM     22  C   UNL     1     143.231  96.242 141.607  1.00  0.00     0.105 C 
ATOM     23  N   UNL     1     143.560  96.278 142.720  1.00  0.00    -0.192 NA
ENDBRANCH  11  13
ENDBRANCH   1   7
TORSDOF 4
ENDMDL
