MODEL 1
REMARK VINA RESULT:    -6.893      0.000      0.000
REMARK INTER + INTRA:          -7.898
REMARK INTER:                  -7.497
REMARK INTRA:                  -0.401
REMARK UNBOUND:                -0.401
REMARK SMILES CN1C(=O)C(O)N=C(c2ccccc2)c2cc(Cl)ccc21
REMARK SMILES IDX 1 1 2 2 3 3 4 4 5 5 7 6 8 7 15 8 16 9 17 10 18 11 19 12
REMARK SMILES IDX 20 13 21 14 6 15 9 17 10 18 14 19 11 20 13 21 12 22
REMARK H PARENT 6 16
ROOT
ATOM      1  C   UNL     1     140.007  98.217 134.753  1.00  0.00     0.153 C 
ATOM      2  N   UNL     1     141.419  98.078 135.087  1.00  0.00    -0.311 N 
ATOM      3  C   UNL     1     142.340  98.677 134.217  1.00  0.00     0.278 C 
ATOM      4  O   UNL     1     142.001  99.188 133.144  1.00  0.00    -0.269 OA
ATOM      5  C   UNL     1     143.822  98.726 134.687  1.00  0.00     0.323 C 
ATOM      6  N   UNL     1     144.356  97.383 134.525  1.00  0.00    -0.243 NA
ATOM      7  C   UNL     1     143.944  96.467 135.335  1.00  0.00     0.078 C 
ATOM      8  C   UNL     1     142.995  96.708 136.464  1.00  0.00     0.026 A 
ATOM      9  C   UNL     1     143.332  96.142 137.707  1.00  0.00     0.033 A 
ATOM     10  C   UNL     1     142.448  96.226 138.777  1.00  0.00     0.041 A 
ATOM     11  Cl  UNL     1     142.858  95.518 140.288  1.00  0.00    -0.084 Cl
ATOM     12  C   UNL     1     141.227  96.871 138.622  1.00  0.00     0.023 A 
ATOM     13  C   UNL     1     140.900  97.456 137.396  1.00  0.00     0.028 A 
ATOM     14  C   UNL     1     141.784  97.414 136.300  1.00  0.00     0.053 A 
ENDROOT
BRANCH   5  15
ATOM     15  O   UNL     1     144.548  99.685 133.934  1.00  0.00    -0.364 OA
ATOM     16  H   UNL     1     144.429 100.509 134.441  1.00  0.00     0.213 HD
ENDBRANCH   5  15
BRANCH   7  17
ATOM     17  C   UNL     1     144.464  95.079 135.117  1.00  0.00     0.000 A 
ATOM     18  C   UNL     1     143.696  94.176 134.372  1.00  0.00     0.010 A 
ATOM     19  C   UNL     1     145.684  94.664 135.667  1.00  0.00     0.010 A 
ATOM     20  C   UNL     1     144.157  92.877 134.155  1.00  0.00     0.001 A 
ATOM     21  C   UNL     1     146.142  93.363 135.446  1.00  0.00     0.001 A 
ATOM     22  C   UNL     1     145.380  92.473 134.688  1.00  0.00     0.000 A 
ENDBRANCH   7  17
TORSDOF 2
ENDMDL
MODEL 2
REMARK VINA RESULT:    -6.719      3.739      5.348
REMARK INTER + INTRA:          -7.710
REMARK INTER:                  -7.222
REMARK INTRA:                  -0.488
REMARK UNBOUND:                -0.401
REMARK SMILES CN1C(=O)C(O)N=C(c2ccccc2)c2cc(Cl)ccc21
REMARK SMILES IDX 1 1 2 2 3 3 4 4 5 5 7 6 8 7 15 8 16 9 17 10 18 11 19 12
REMARK SMILES IDX 20 13 21 14 6 15 9 17 10 18 14 19 11 20 13 21 12 22
REMARK H PARENT 6 16
ROOT
ATOM      1  C   UNL     1     138.900 100.619 134.483  1.00  0.00     0.153 C 
ATOM      2  N   UNL     1     139.720  99.759 133.638  1.00  0.00    -0.311 N 
ATOM      3  C   UNL     1     140.115 100.278 132.397  1.00  0.00     0.278 C 
ATOM      4  O   UNL     1     139.690 101.356 131.965  1.00  0.00    -0.269 OA
ATOM      5  C   UNL     1     141.170  99.462 131.597  1.00  0.00     0.323 C 
ATOM      6  N   UNL     1     140.472  98.316 131.034  1.00  0.00    -0.243 NA
ATOM      7  C   UNL     1     140.098  97.381 131.840  1.00  0.00     0.078 C 
ATOM      8  C   UNL     1     140.384  97.371 133.308  1.00  0.00     0.026 A 
ATOM      9  C   UNL     1     140.866  96.166 133.852  1.00  0.00     0.033 A 
ATOM     10  C   UNL     1     141.049  96.042 135.224  1.00  0.00     0.041 A 
ATOM     11  Cl  UNL     1     141.621  94.562 135.884  1.00  0.00    -0.084 Cl
ATOM     12  C   UNL     1     140.759  97.109 136.064  1.00  0.00     0.023 A 
ATOM     13  C   UNL     1     140.305  98.316 135.525  1.00  0.00     0.028 A 
ATOM     14  C   UNL     1     140.135  98.485 134.137  1.00  0.00     0.053 A 
ENDROOT
BRANCH   5  15
ATOM     15  O   UNL     1     141.765 100.272 130.595  1.00  0.00    -0.364 OA
ATOM     16  H   UNL     1     142.710 100.041 130.648  1.00  0.00     0.213 HD
ENDBRANCH   5  15
BRANCH   7  17
ATOM     17  C   UNL     1     139.333  96.236 131.250  1.00  0.00     0.000 A 
ATOM     18  C   UNL     1     140.009  95.313 130.443  1.00  0.00     0.010 A 
ATOM     19  C   UNL     1     137.957  96.093 131.467  1.00  0.00     0.010 A 
ATOM     20  C   UNL     1     139.319  94.239 129.880  1.00  0.00     0.001 A 
ATOM     21  C   UNL     1     137.271  95.015 130.902  1.00  0.00     0.001 A 
ATOM     22  C   UNL     1     137.952  94.088 130.113  1.00  0.00     0.000 A 
ENDBRANCH   7  17
TORSDOF 2
ENDMDL
MODEL 3
REMARK VINA RESULT:    -6.634      3.869      6.277
REMARK INTER + INTRA:          -7.617
REMARK INTER:                  -7.269
REMARK INTRA:                  -0.348
REMARK UNBOUND:                -0.401
REMARK SMILES CN1C(=O)C(O)N=C(c2ccccc2)c2cc(Cl)ccc21
REMARK SMILES IDX 1 1 2 2 3 3 4 4 5 5 7 6 8 7 15 8 16 9 17 10 18 11 19 12
REMARK SMILES IDX 20 13 21 14 6 15 9 17 10 18 14 19 11 20 13 21 12 22
REMARK H PARENT 6 16
ROOT
ATOM      1  C   UNL     1     140.534  98.462 136.716  1.00  0.00     0.153 C 
ATOM      2  N   UNL     1     140.421  98.818 135.307  1.00  0.00    -0.311 N 
ATOM      3  C   UNL     1     139.620  99.924 134.993  1.00  0.00     0.278 C 
ATOM      4  O   UNL     1     138.928 100.501 135.839  1.00  0.00    -0.269 OA
ATOM      5  C   UNL     1     139.680 100.443 133.528  1.00  0.00     0.323 C 
ATOM      6  N   UNL     1     138.916  99.504 132.721  1.00  0.00    -0.243 NA
ATOM      7  C   UNL     1     139.419  98.334 132.516  1.00  0.00     0.078 C 
ATOM      8  C   UNL     1     140.762  97.898 133.007  1.00  0.00     0.026 A 
ATOM      9  C   UNL     1     141.589  97.231 132.084  1.00  0.00     0.033 A 
ATOM     10  C   UNL     1     142.805  96.697 132.493  1.00  0.00     0.041 A 
ATOM     11  Cl  UNL     1     143.802  95.869 131.365  1.00  0.00    -0.084 Cl
ATOM     12  C   UNL     1     143.210  96.821 133.815  1.00  0.00     0.023 A 
ATOM     13  C   UNL     1     142.404  97.505 134.729  1.00  0.00     0.028 A 
ATOM     14  C   UNL     1     141.179  98.083 134.342  1.00  0.00     0.053 A 
ENDROOT
BRANCH   5  15
ATOM     15  O   UNL     1     139.163 101.761 133.449  1.00  0.00    -0.364 OA
ATOM     16  H   UNL     1     139.783 102.213 132.848  1.00  0.00     0.213 HD
ENDBRANCH   5  15
BRANCH   7  17
ATOM     17  C   UNL     1     138.592  97.364 131.729  1.00  0.00     0.000 A 
ATOM     18  C   UNL     1     137.875  97.827 130.619  1.00  0.00     0.010 A 
ATOM     19  C   UNL     1     138.501  96.016 132.102  1.00  0.00     0.010 A 
ATOM     20  C   UNL     1     137.097  96.944 129.870  1.00  0.00     0.001 A 
ATOM     21  C   UNL     1     137.722  95.136 131.348  1.00  0.00     0.001 A 
ATOM     22  C   UNL     1     137.024  95.599 130.232  1.00  0.00     0.000 A 
ENDBRANCH   7  17
TORSDOF 2
ENDMDL
MODEL 4
REMARK VINA RESULT:    -6.623      1.381      1.827
REMARK INTER + INTRA:          -7.605
REMARK INTER:                  -7.100
REMARK INTRA:                  -0.505
REMARK UNBOUND:                -0.401
REMARK SMILES CN1C(=O)C(O)N=C(c2ccccc2)c2cc(Cl)ccc21
REMARK SMILES IDX 1 1 2 2 3 3 4 4 5 5 7 6 8 7 15 8 16 9 17 10 18 11 19 12
REMARK SMILES IDX 20 13 21 14 6 15 9 17 10 18 14 19 11 20 13 21 12 22
REMARK H PARENT 6 16
ROOT
ATOM      1  C   UNL     1     140.121  98.159 133.312  1.00  0.00     0.153 C 
ATOM      2  N   UNL     1     141.559  98.117 133.546  1.00  0.00    -0.311 N 
ATOM      3  C   UNL     1     142.388  98.516 132.489  1.00  0.00     0.278 C 
ATOM      4  O   UNL     1     141.947  98.766 131.361  1.00  0.00    -0.269 OA
ATOM      5  C   UNL     1     143.900  98.689 132.807  1.00  0.00     0.323 C 
ATOM      6  N   UNL     1     144.463  97.352 132.906  1.00  0.00    -0.243 NA
ATOM      7  C   UNL     1     144.146  96.637 133.933  1.00  0.00     0.078 C 
ATOM      8  C   UNL     1     143.283  97.116 135.056  1.00  0.00     0.026 A 
ATOM      9  C   UNL     1     143.737  96.850 136.361  1.00  0.00     0.033 A 
ATOM     10  C   UNL     1     142.939  97.163 137.456  1.00  0.00     0.041 A 
ATOM     11  Cl  UNL     1     143.492  96.821 139.047  1.00  0.00    -0.084 Cl
ATOM     12  C   UNL     1     141.691  97.740 137.265  1.00  0.00     0.023 A 
ATOM     13  C   UNL     1     141.247  98.028 135.972  1.00  0.00     0.028 A 
ATOM     14  C   UNL     1     142.041  97.750 134.842  1.00  0.00     0.053 A 
ENDROOT
BRANCH   5  15
ATOM     15  O   UNL     1     144.532  99.463 131.799  1.00  0.00    -0.364 OA
ATOM     16  H   UNL     1     144.943 100.193 132.296  1.00  0.00     0.213 HD
ENDBRANCH   5  15
BRANCH   7  17
ATOM     17  C   UNL     1     144.691  95.243 133.988  1.00  0.00     0.000 A 
ATOM     18  C   UNL     1     146.075  95.060 134.104  1.00  0.00     0.010 A 
ATOM     19  C   UNL     1     143.848  94.128 133.898  1.00  0.00     0.010 A 
ATOM     20  C   UNL     1     146.608  93.772 134.158  1.00  0.00     0.001 A 
ATOM     21  C   UNL     1     144.386  92.841 133.953  1.00  0.00     0.001 A 
ATOM     22  C   UNL     1     145.764  92.664 134.086  1.00  0.00     0.000 A 
ENDBRANCH   7  17
TORSDOF 2
ENDMDL
MODEL 5
REMARK VINA RESULT:    -6.438      2.127      4.596
REMARK INTER + INTRA:          -7.404
REMARK INTER:                  -7.094
REMARK INTRA:                  -0.310
REMARK UNBOUND:                -0.401
REMARK SMILES CN1C(=O)C(O)N=C(c2ccccc2)c2cc(Cl)ccc21
REMARK SMILES IDX 1 1 2 2 3 3 4 4 5 5 7 6 8 7 15 8 16 9 17 10 18 11 19 12
REMARK SMILES IDX 20 13 21 14 6 15 9 17 10 18 14 19 11 20 13 21 12 22
REMARK H PARENT 6 16
ROOT
ATOM      1  C   UNL     1     143.507  99.096 133.589  1.00  0.00     0.153 C 
ATOM      2  N   UNL     1     142.859  98.037 134.355  1.00  0.00    -0.311 N 
ATOM      3  C   UNL     1     141.499  98.204 134.646  1.00  0.00     0.278 C 
ATOM      4  O   UNL     1     140.891  99.250 134.391  1.00  0.00    -0.269 OA
ATOM      5  C   UNL     1     140.756  96.983 135.259  1.00  0.00     0.323 C 
ATOM      6  N   UNL     1     141.169  96.898 136.651  1.00  0.00    -0.243 NA
ATOM      7  C   UNL     1     142.376  96.515 136.901  1.00  0.00     0.078 C 
ATOM      8  C   UNL     1     143.359  96.099 135.855  1.00  0.00     0.026 A 
ATOM      9  C   UNL     1     144.083  94.917 136.099  1.00  0.00     0.033 A 
ATOM     10  C   UNL     1     145.094  94.524 135.230  1.00  0.00     0.041 A 
ATOM     11  Cl  UNL     1     145.984  93.088 135.543  1.00  0.00    -0.084 Cl
ATOM     12  C   UNL     1     145.393  95.296 134.115  1.00  0.00     0.023 A 
ATOM     13  C   UNL     1     144.660  96.457 133.856  1.00  0.00     0.028 A 
ATOM     14  C   UNL     1     143.611  96.870 134.700  1.00  0.00     0.053 A 
ENDROOT
BRANCH   5  15
ATOM     15  O   UNL     1     139.352  97.141 135.126  1.00  0.00    -0.364 OA
ATOM     16  H   UNL     1     138.989  96.465 135.727  1.00  0.00     0.213 HD
ENDBRANCH   5  15
BRANCH   7  17
ATOM     17  C   UNL     1     142.799  96.488 138.337  1.00  0.00     0.000 A 
ATOM     18  C   UNL     1     141.871  96.099 139.311  1.00  0.00     0.010 A 
ATOM     19  C   UNL     1     144.091  96.870 138.722  1.00  0.00     0.010 A 
ATOM     20  C   UNL     1     142.240  96.065 140.656  1.00  0.00     0.001 A 
ATOM     21  C   UNL     1     144.456  96.834 140.070  1.00  0.00     0.001 A 
ATOM     22  C   UNL     1     143.532  96.429 141.034  1.00  0.00     0.000 A 
ENDBRANCH   7  17
TORSDOF 2
ENDMDL
MODEL 6
REMARK VINA RESULT:    -6.359      3.509      5.218
REMARK INTER + INTRA:          -7.317
REMARK INTER:                  -7.420
REMARK INTRA:                   0.102
REMARK UNBOUND:                -0.401
REMARK SMILES CN1C(=O)C(O)N=C(c2ccccc2)c2cc(Cl)ccc21
REMARK SMILES IDX 1 1 2 2 3 3 4 4 5 5 7 6 8 7 15 8 16 9 17 10 18 11 19 12
REMARK SMILES IDX 20 13 21 14 6 15 9 17 10 18 14 19 11 20 13 21 12 22
REMARK H PARENT 6 16
ROOT
ATOM      1  C   UNL     1     140.369  96.851 130.742  1.00  0.00     0.153 C 
ATOM      2  N   UNL     1     141.031  97.738 131.692  1.00  0.00    -0.311 N 
ATOM      3  C   UNL     1     142.431  97.777 131.656  1.00  0.00     0.278 C 
ATOM      4  O   UNL     1     143.097  97.007 130.954  1.00  0.00    -0.269 OA
ATOM      5  C   UNL     1     143.126  98.881 132.504  1.00  0.00     0.323 C 
ATOM      6  N   UNL     1     143.050  98.451 133.891  1.00  0.00    -0.243 NA
ATOM      7  C   UNL     1     141.898  98.482 134.472  1.00  0.00     0.078 C 
ATOM      8  C   UNL     1     140.645  98.981 133.827  1.00  0.00     0.026 A 
ATOM      9  C   UNL     1     139.847  99.856 134.587  1.00  0.00     0.033 A 
ATOM     10  C   UNL     1     138.614 100.276 134.103  1.00  0.00     0.041 A 
ATOM     11  Cl  UNL     1     137.637 101.332 135.043  1.00  0.00    -0.084 Cl
ATOM     12  C   UNL     1     138.164  99.834 132.866  1.00  0.00     0.023 A 
ATOM     13  C   UNL     1     138.965  98.984 132.098  1.00  0.00     0.028 A 
ATOM     14  C   UNL     1     140.232  98.562 132.545  1.00  0.00     0.053 A 
ENDROOT
BRANCH   5  15
ATOM     15  O   UNL     1     144.465  99.065 132.072  1.00  0.00    -0.364 OA
ATOM     16  H   UNL     1     144.808  99.745 132.681  1.00  0.00     0.213 HD
ENDBRANCH   5  15
BRANCH   7  17
ATOM     17  C   UNL     1     141.832  97.983 135.883  1.00  0.00     0.000 A 
ATOM     18  C   UNL     1     143.017  97.609 136.527  1.00  0.00     0.010 A 
ATOM     19  C   UNL     1     140.608  97.859 136.553  1.00  0.00     0.010 A 
ATOM     20  C   UNL     1     142.982  97.142 137.841  1.00  0.00     0.001 A 
ATOM     21  C   UNL     1     140.578  97.392 137.869  1.00  0.00     0.001 A 
ATOM     22  C   UNL     1     141.764  97.037 138.512  1.00  0.00     0.000 A 
ENDBRANCH   7  17
TORSDOF 2
ENDMDL
MODEL 7
REMARK VINA RESULT:    -6.334      3.330      5.511
REMARK INTER + INTRA:          -7.290
REMARK INTER:                  -6.845
REMARK INTRA:                  -0.445
REMARK UNBOUND:                -0.401
REMARK SMILES CN1C(=O)C(O)N=C(c2ccccc2)c2cc(Cl)ccc21
REMARK SMILES IDX 1 1 2 2 3 3 4 4 5 5 7 6 8 7 15 8 16 9 17 10 18 11 19 12
REMARK SMILES IDX 20 13 21 14 6 15 9 17 10 18 14 19 11 20 13 21 12 22
REMARK H PARENT 6 16
ROOT
ATOM      1  C   UNL     1     144.073  94.661 131.397  1.00  0.00     0.153 C 
ATOM      2  N   UNL     1     143.351  95.851 131.832  1.00  0.00    -0.311 N 
ATOM      3  C   UNL     1     144.091  97.035 131.951  1.00  0.00     0.278 C 
ATOM      4  O   UNL     1     145.321  97.062 131.827  1.00  0.00    -0.269 OA
ATOM      5  C   UNL     1     143.287  98.345 132.191  1.00  0.00     0.323 C 
ATOM      6  N   UNL     1     142.863  98.325 133.582  1.00  0.00    -0.243 NA
ATOM      7  C   UNL     1     141.941  97.488 133.921  1.00  0.00     0.078 C 
ATOM      8  C   UNL     1     141.243  96.574 132.965  1.00  0.00     0.026 A 
ATOM      9  C   UNL     1     139.841  96.502 133.068  1.00  0.00     0.033 A 
ATOM     10  C   UNL     1     139.130  95.594 132.292  1.00  0.00     0.041 A 
ATOM     11  Cl  UNL     1     137.419  95.499 132.433  1.00  0.00    -0.084 Cl
ATOM     12  C   UNL     1     139.800  94.755 131.411  1.00  0.00     0.023 A 
ATOM     13  C   UNL     1     141.189  94.841 131.289  1.00  0.00     0.028 A 
ATOM     14  C   UNL     1     141.939  95.769 132.039  1.00  0.00     0.053 A 
ENDROOT
BRANCH   5  15
ATOM     15  O   UNL     1     144.088  99.477 131.892  1.00  0.00    -0.364 OA
ATOM     16  H   UNL     1     144.632  99.589 132.692  1.00  0.00     0.213 HD
ENDBRANCH   5  15
BRANCH   7  17
ATOM     17  C   UNL     1     141.557  97.444 135.368  1.00  0.00     0.000 A 
ATOM     18  C   UNL     1     142.070  96.421 136.175  1.00  0.00     0.010 A 
ATOM     19  C   UNL     1     140.676  98.386 135.915  1.00  0.00     0.010 A 
ATOM     20  C   UNL     1     141.727  96.358 137.526  1.00  0.00     0.001 A 
ATOM     21  C   UNL     1     140.337  98.318 137.268  1.00  0.00     0.001 A 
ATOM     22  C   UNL     1     140.864  97.308 138.073  1.00  0.00     0.000 A 
ENDBRANCH   7  17
TORSDOF 2
ENDMDL
MODEL 8
REMARK VINA RESULT:    -6.301      4.118      5.990
REMARK INTER + INTRA:          -7.254
REMARK INTER:                  -6.754
REMARK INTRA:                  -0.500
REMARK UNBOUND:                -0.401
REMARK SMILES CN1C(=O)C(O)N=C(c2ccccc2)c2cc(Cl)ccc21
REMARK SMILES IDX 1 1 2 2 3 3 4 4 5 5 7 6 8 7 15 8 16 9 17 10 18 11 19 12
REMARK SMILES IDX 20 13 21 14 6 15 9 17 10 18 14 19 11 20 13 21 12 22
REMARK H PARENT 6 16
ROOT
ATOM      1  C   UNL     1     140.022 100.397 130.319  1.00  0.00     0.153 C 
ATOM      2  N   UNL     1     139.525  99.672 131.482  1.00  0.00    -0.311 N 
ATOM      3  C   UNL     1     139.499 100.365 132.700  1.00  0.00     0.278 C 
ATOM      4  O   UNL     1     139.991 101.491 132.831  1.00  0.00    -0.269 OA
ATOM      5  C   UNL     1     138.763  99.677 133.885  1.00  0.00     0.323 C 
ATOM      6  N   UNL     1     139.640  98.621 134.364  1.00  0.00    -0.243 NA
ATOM      7  C   UNL     1     139.792  97.577 133.620  1.00  0.00     0.078 C 
ATOM      8  C   UNL     1     139.082  97.359 132.323  1.00  0.00     0.026 A 
ATOM      9  C   UNL     1     138.508  96.090 132.120  1.00  0.00     0.033 A 
ATOM     10  C   UNL     1     137.928  95.772 130.897  1.00  0.00     0.041 A 
ATOM     11  Cl  UNL     1     137.243  94.216 130.651  1.00  0.00    -0.084 Cl
ATOM     12  C   UNL     1     137.913  96.707 129.870  1.00  0.00     0.023 A 
ATOM     13  C   UNL     1     138.461  97.976 130.076  1.00  0.00     0.028 A 
ATOM     14  C   UNL     1     139.030  98.342 131.311  1.00  0.00     0.053 A 
ENDROOT
BRANCH   5  15
ATOM     15  O   UNL     1     138.463 100.625 134.897  1.00  0.00    -0.364 OA
ATOM     16  H   UNL     1     138.132 101.393 134.398  1.00  0.00     0.213 HD
ENDBRANCH   5  15
BRANCH   7  17
ATOM     17  C   UNL     1     140.742  96.526 134.105  1.00  0.00     0.000 A 
ATOM     18  C   UNL     1     141.903  96.267 133.366  1.00  0.00     0.010 A 
ATOM     19  C   UNL     1     140.475  95.782 135.262  1.00  0.00     0.010 A 
ATOM     20  C   UNL     1     142.804  95.293 133.796  1.00  0.00     0.001 A 
ATOM     21  C   UNL     1     141.381  94.808 135.689  1.00  0.00     0.001 A 
ATOM     22  C   UNL     1     142.545  94.567 134.958  1.00  0.00     0.000 A 
ENDBRANCH   7  17
TORSDOF 2
ENDMDL
MODEL 9
REMARK VINA RESULT:    -6.244      3.628      5.536
REMARK INTER + INTRA:          -7.193
REMARK INTER:                  -6.763
REMARK INTRA:                  -0.430
REMARK UNBOUND:                -0.401
REMARK SMILES CN1C(=O)C(O)N=C(c2ccccc2)c2cc(Cl)ccc21
REMARK SMILES IDX 1 1 2 2 3 3 4 4 5 5 7 6 8 7 15 8 16 9 17 10 18 11 19 12
REMARK SMILES IDX 20 13 21 14 6 15 9 17 10 18 14 19 11 20 13 21 12 22
REMARK H PARENT 6 16
ROOT
ATOM      1  C   UNL     1     140.785 100.382 130.785  1.00  0.00     0.153 C 
ATOM      2  N   UNL     1     140.165  99.728 131.932  1.00  0.00    -0.311 N 
ATOM      3  C   UNL     1     139.440 100.542 132.812  1.00  0.00     0.278 C 
ATOM      4  O   UNL     1     139.425 101.774 132.713  1.00  0.00    -0.269 OA
ATOM      5  C   UNL     1     138.594  99.822 133.900  1.00  0.00     0.323 C 
ATOM      6  N   UNL     1     139.527  99.350 134.911  1.00  0.00    -0.243 NA
ATOM      7  C   UNL     1     140.300  98.363 134.606  1.00  0.00     0.078 C 
ATOM      8  C   UNL     1     140.261  97.637 133.300  1.00  0.00     0.026 A 
ATOM      9  C   UNL     1     140.281  96.231 133.355  1.00  0.00     0.033 A 
ATOM     10  C   UNL     1     140.359  95.486 132.185  1.00  0.00     0.041 A 
ATOM     11  Cl  UNL     1     140.401  93.769 132.260  1.00  0.00    -0.084 Cl
ATOM     12  C   UNL     1     140.416  96.126 130.954  1.00  0.00     0.023 A 
ATOM     13  C   UNL     1     140.371  97.522 130.893  1.00  0.00     0.028 A 
ATOM     14  C   UNL     1     140.263  98.307 132.058  1.00  0.00     0.053 A 
ENDROOT
BRANCH   5  15
ATOM     15  O   UNL     1     137.624 100.707 134.439  1.00  0.00    -0.364 OA
ATOM     16  H   UNL     1     137.755 101.526 133.926  1.00  0.00     0.213 HD
ENDBRANCH   5  15
BRANCH   7  17
ATOM     17  C   UNL     1     141.293  97.928 135.640  1.00  0.00     0.000 A 
ATOM     18  C   UNL     1     142.641  97.810 135.279  1.00  0.00     0.010 A 
ATOM     19  C   UNL     1     140.892  97.612 136.945  1.00  0.00     0.010 A 
ATOM     20  C   UNL     1     143.585  97.406 136.224  1.00  0.00     0.001 A 
ATOM     21  C   UNL     1     141.842  97.209 137.886  1.00  0.00     0.001 A 
ATOM     22  C   UNL     1     143.186  97.110 137.527  1.00  0.00     0.000 A 
ENDBRANCH   7  17
TORSDOF 2
ENDMDL
