MODEL 1
REMARK VINA RESULT:    -6.820      0.000      0.000
REMARK INTER + INTRA:          -7.839
REMARK INTER:                  -7.219
REMARK INTRA:                  -0.620
REMARK UNBOUND:                -0.620
REMARK SMILES Cc1nnc2n1-c1ccc(Cl)cc1C(c1ccccc1Cl)=NC2
REMARK SMILES IDX 1 1 2 2 3 3 4 4 5 5 6 6 7 7 8 8 9 9 10 10 11 11 12 12 13 13
REMARK SMILES IDX 14 14 22 15 23 16 15 17 16 18 20 19 17 20 19 21 18 22 21 23
REMARK H PARENT
ROOT
ATOM      1  C   UNL     1     141.712  95.974 137.439  1.00  0.00     0.090 C 
ATOM      2  C   UNL     1     141.185  97.251 136.904  1.00  0.00     0.134 A 
ATOM      3  N   UNL     1     140.580  98.163 137.639  1.00  0.00    -0.135 NA
ATOM      4  N   UNL     1     140.091  99.129 136.808  1.00  0.00    -0.133 NA
ATOM      5  C   UNL     1     140.406  98.801 135.574  1.00  0.00     0.159 A 
ATOM      6  N   UNL     1     141.141  97.635 135.571  1.00  0.00    -0.281 N 
ATOM      7  C   UNL     1     141.752  97.045 134.433  1.00  0.00     0.058 A 
ATOM      8  C   UNL     1     142.991  96.397 134.584  1.00  0.00     0.029 A 
ATOM      9  C   UNL     1     143.646  95.849 133.480  1.00  0.00     0.023 A 
ATOM     10  C   UNL     1     143.077  95.952 132.217  1.00  0.00     0.041 A 
ATOM     11  Cl  UNL     1     143.891  95.285 130.856  1.00  0.00    -0.084 Cl
ATOM     12  C   UNL     1     141.853  96.592 132.046  1.00  0.00     0.033 A 
ATOM     13  C   UNL     1     141.173  97.141 133.149  1.00  0.00     0.026 A 
ATOM     14  C   UNL     1     139.812  97.714 132.895  1.00  0.00     0.076 C 
ATOM     15  N   UNL     1     139.323  98.780 133.426  1.00  0.00    -0.276 NA
ATOM     16  C   UNL     1     140.127  99.573 134.346  1.00  0.00     0.220 C 
ENDROOT
BRANCH  14  17
ATOM     17  C   UNL     1     138.912  96.965 131.979  1.00  0.00     0.019 A 
ATOM     18  C   UNL     1     138.318  95.791 132.460  1.00  0.00     0.012 A 
ATOM     19  C   UNL     1     138.636  97.420 130.684  1.00  0.00     0.050 A 
ATOM     20  C   UNL     1     137.455  95.065 131.639  1.00  0.00     0.001 A 
ATOM     21  C   UNL     1     137.770  96.685 129.869  1.00  0.00     0.021 A 
ATOM     22  C   UNL     1     137.182  95.511 130.346  1.00  0.00     0.002 A 
ATOM     23  Cl  UNL     1     139.376  98.831 130.020  1.00  0.00    -0.084 Cl
ENDBRANCH  14  17
TORSDOF 1
ENDMDL
MODEL 2
REMARK VINA RESULT:    -6.750      2.954      6.039
REMARK INTER + INTRA:          -7.764
REMARK INTER:                  -7.130
REMARK INTRA:                  -0.634
REMARK UNBOUND:                -0.620
REMARK SMILES Cc1nnc2n1-c1ccc(Cl)cc1C(c1ccccc1Cl)=NC2
REMARK SMILES IDX 1 1 2 2 3 3 4 4 5 5 6 6 7 7 8 8 9 9 10 10 11 11 12 12 13 13
REMARK SMILES IDX 14 14 22 15 23 16 15 17 16 18 20 19 17 20 19 21 18 22 21 23
REMARK H PARENT
ROOT
ATOM      1  C   UNL     1     139.192  97.746 133.615  1.00  0.00     0.090 C 
ATOM      2  C   UNL     1     140.450  98.151 132.944  1.00  0.00     0.134 A 
ATOM      3  N   UNL     1     140.511  98.605 131.708  1.00  0.00    -0.135 NA
ATOM      4  N   UNL     1     141.826  98.732 131.362  1.00  0.00    -0.133 NA
ATOM      5  C   UNL     1     142.554  98.359 132.392  1.00  0.00     0.159 A 
ATOM      6  N   UNL     1     141.736  98.017 133.447  1.00  0.00    -0.281 N 
ATOM      7  C   UNL     1     142.171  97.681 134.756  1.00  0.00     0.058 A 
ATOM      8  C   UNL     1     141.390  98.075 135.857  1.00  0.00     0.029 A 
ATOM      9  C   UNL     1     141.810  97.807 137.161  1.00  0.00     0.023 A 
ATOM     10  C   UNL     1     143.016  97.152 137.378  1.00  0.00     0.041 A 
ATOM     11  Cl  UNL     1     143.537  96.831 138.985  1.00  0.00    -0.084 Cl
ATOM     12  C   UNL     1     143.805  96.756 136.301  1.00  0.00     0.033 A 
ATOM     13  C   UNL     1     143.393  97.009 134.980  1.00  0.00     0.026 A 
ATOM     14  C   UNL     1     144.246  96.453 133.881  1.00  0.00     0.076 C 
ATOM     15  N   UNL     1     144.527  97.033 132.767  1.00  0.00    -0.276 NA
ATOM     16  C   UNL     1     144.028  98.374 132.496  1.00  0.00     0.220 C 
ENDROOT
BRANCH  14  17
ATOM     17  C   UNL     1     144.790  95.081 134.061  1.00  0.00     0.019 A 
ATOM     18  C   UNL     1     146.156  94.951 134.339  1.00  0.00     0.012 A 
ATOM     19  C   UNL     1     143.971  93.949 133.986  1.00  0.00     0.050 A 
ATOM     20  C   UNL     1     146.706  93.683 134.531  1.00  0.00     0.001 A 
ATOM     21  C   UNL     1     144.531  92.683 134.179  1.00  0.00     0.021 A 
ATOM     22  C   UNL     1     145.895  92.551 134.450  1.00  0.00     0.002 A 
ATOM     23  Cl  UNL     1     142.291  94.044 133.599  1.00  0.00    -0.084 Cl
ENDBRANCH  14  17
TORSDOF 1
ENDMDL
MODEL 3
REMARK VINA RESULT:    -6.750      2.681      6.251
REMARK INTER + INTRA:          -7.764
REMARK INTER:                  -7.151
REMARK INTRA:                  -0.613
REMARK UNBOUND:                -0.620
REMARK SMILES Cc1nnc2n1-c1ccc(Cl)cc1C(c1ccccc1Cl)=NC2
REMARK SMILES IDX 1 1 2 2 3 3 4 4 5 5 6 6 7 7 8 8 9 9 10 10 11 11 12 12 13 13
REMARK SMILES IDX 14 14 22 15 23 16 15 17 16 18 20 19 17 20 19 21 18 22 21 23
REMARK H PARENT
ROOT
ATOM      1  C   UNL     1     138.053  95.679 130.900  1.00  0.00     0.090 C 
ATOM      2  C   UNL     1     139.510  95.884 130.725  1.00  0.00     0.134 A 
ATOM      3  N   UNL     1     140.254  95.198 129.880  1.00  0.00    -0.135 NA
ATOM      4  N   UNL     1     141.561  95.533 130.088  1.00  0.00    -0.133 NA
ATOM      5  C   UNL     1     141.602  96.425 131.055  1.00  0.00     0.159 A 
ATOM      6  N   UNL     1     140.324  96.723 131.475  1.00  0.00    -0.281 N 
ATOM      7  C   UNL     1     139.975  97.725 132.417  1.00  0.00     0.058 A 
ATOM      8  C   UNL     1     138.780  98.445 132.237  1.00  0.00     0.029 A 
ATOM      9  C   UNL     1     138.428  99.472 133.114  1.00  0.00     0.023 A 
ATOM     10  C   UNL     1     139.269  99.796 134.171  1.00  0.00     0.041 A 
ATOM     11  Cl  UNL     1     138.839 101.069 135.245  1.00  0.00    -0.084 Cl
ATOM     12  C   UNL     1     140.458  99.098 134.365  1.00  0.00     0.033 A 
ATOM     13  C   UNL     1     140.823  98.052 133.498  1.00  0.00     0.026 A 
ATOM     14  C   UNL     1     142.061  97.282 133.842  1.00  0.00     0.076 C 
ATOM     15  N   UNL     1     142.940  96.842 133.011  1.00  0.00    -0.276 NA
ATOM     16  C   UNL     1     142.798  97.110 131.586  1.00  0.00     0.220 C 
ENDROOT
BRANCH  14  17
ATOM     17  C   UNL     1     142.285  96.947 135.272  1.00  0.00     0.019 A 
ATOM     18  C   UNL     1     143.175  97.747 136.000  1.00  0.00     0.012 A 
ATOM     19  C   UNL     1     141.617  95.885 135.894  1.00  0.00     0.050 A 
ATOM     20  C   UNL     1     143.403  97.478 137.350  1.00  0.00     0.001 A 
ATOM     21  C   UNL     1     141.853  95.623 137.246  1.00  0.00     0.021 A 
ATOM     22  C   UNL     1     142.744  96.418 137.971  1.00  0.00     0.002 A 
ATOM     23  Cl  UNL     1     140.548  94.835 135.037  1.00  0.00    -0.084 Cl
ENDBRANCH  14  17
TORSDOF 1
ENDMDL
MODEL 4
REMARK VINA RESULT:    -6.671      2.639      5.363
REMARK INTER + INTRA:          -7.681
REMARK INTER:                  -7.210
REMARK INTRA:                  -0.470
REMARK UNBOUND:                -0.620
REMARK SMILES Cc1nnc2n1-c1ccc(Cl)cc1C(c1ccccc1Cl)=NC2
REMARK SMILES IDX 1 1 2 2 3 3 4 4 5 5 6 6 7 7 8 8 9 9 10 10 11 11 12 12 13 13
REMARK SMILES IDX 14 14 22 15 23 16 15 17 16 18 20 19 17 20 19 21 18 22 21 23
REMARK H PARENT
ROOT
ATOM      1  C   UNL     1     140.790  99.847 131.373  1.00  0.00     0.090 C 
ATOM      2  C   UNL     1     140.063  98.581 131.628  1.00  0.00     0.134 A 
ATOM      3  N   UNL     1     138.781  98.405 131.379  1.00  0.00    -0.135 NA
ATOM      4  N   UNL     1     138.411  97.188 131.872  1.00  0.00    -0.133 NA
ATOM      5  C   UNL     1     139.471  96.630 132.414  1.00  0.00     0.159 A 
ATOM      6  N   UNL     1     140.567  97.449 132.253  1.00  0.00    -0.281 N 
ATOM      7  C   UNL     1     141.903  97.123 132.606  1.00  0.00     0.058 A 
ATOM      8  C   UNL     1     142.956  97.590 131.798  1.00  0.00     0.029 A 
ATOM      9  C   UNL     1     144.278  97.248 132.083  1.00  0.00     0.023 A 
ATOM     10  C   UNL     1     144.562  96.430 133.170  1.00  0.00     0.041 A 
ATOM     11  Cl  UNL     1     146.191  96.002 133.514  1.00  0.00    -0.084 Cl
ATOM     12  C   UNL     1     143.534  95.955 133.980  1.00  0.00     0.033 A 
ATOM     13  C   UNL     1     142.196  96.298 133.714  1.00  0.00     0.026 A 
ATOM     14  C   UNL     1     141.164  95.836 134.697  1.00  0.00     0.076 C 
ATOM     15  N   UNL     1     139.986  95.400 134.417  1.00  0.00    -0.276 NA
ATOM     16  C   UNL     1     139.559  95.289 133.029  1.00  0.00     0.220 C 
ENDROOT
BRANCH  14  17
ATOM     17  C   UNL     1     141.505  95.925 136.142  1.00  0.00     0.019 A 
ATOM     18  C   UNL     1     142.133  94.823 136.735  1.00  0.00     0.012 A 
ATOM     19  C   UNL     1     141.237  97.076 136.891  1.00  0.00     0.050 A 
ATOM     20  C   UNL     1     142.485  94.869 138.084  1.00  0.00     0.001 A 
ATOM     21  C   UNL     1     141.592  97.112 138.243  1.00  0.00     0.021 A 
ATOM     22  C   UNL     1     142.213  96.012 138.837  1.00  0.00     0.002 A 
ATOM     23  Cl  UNL     1     140.421  98.445 136.228  1.00  0.00    -0.084 Cl
ENDBRANCH  14  17
TORSDOF 1
ENDMDL
MODEL 5
REMARK VINA RESULT:    -6.479      3.140      4.141
REMARK INTER + INTRA:          -7.478
REMARK INTER:                  -6.848
REMARK INTRA:                  -0.630
REMARK UNBOUND:                -0.620
REMARK SMILES Cc1nnc2n1-c1ccc(Cl)cc1C(c1ccccc1Cl)=NC2
REMARK SMILES IDX 1 1 2 2 3 3 4 4 5 5 6 6 7 7 8 8 9 9 10 10 11 11 12 12 13 13
REMARK SMILES IDX 14 14 22 15 23 16 15 17 16 18 20 19 17 20 19 21 18 22 21 23
REMARK H PARENT
ROOT
ATOM      1  C   UNL     1     140.063  97.594 138.290  1.00  0.00     0.090 C 
ATOM      2  C   UNL     1     140.422  98.279 137.026  1.00  0.00     0.134 A 
ATOM      3  N   UNL     1     139.697  99.229 136.472  1.00  0.00    -0.135 NA
ATOM      4  N   UNL     1     140.234  99.523 135.252  1.00  0.00    -0.133 NA
ATOM      5  C   UNL     1     141.285  98.752 135.075  1.00  0.00     0.159 A 
ATOM      6  N   UNL     1     141.484  97.966 136.188  1.00  0.00    -0.281 N 
ATOM      7  C   UNL     1     142.588  97.099 136.403  1.00  0.00     0.058 A 
ATOM      8  C   UNL     1     143.099  96.955 137.705  1.00  0.00     0.029 A 
ATOM      9  C   UNL     1     144.214  96.151 137.947  1.00  0.00     0.023 A 
ATOM     10  C   UNL     1     144.835  95.494 136.893  1.00  0.00     0.041 A 
ATOM     11  Cl  UNL     1     146.215  94.512 137.192  1.00  0.00    -0.084 Cl
ATOM     12  C   UNL     1     144.346  95.626 135.596  1.00  0.00     0.033 A 
ATOM     13  C   UNL     1     143.216  96.423 135.335  1.00  0.00     0.026 A 
ATOM     14  C   UNL     1     142.692  96.423 133.931  1.00  0.00     0.076 C 
ATOM     15  N   UNL     1     142.226  97.439 133.292  1.00  0.00    -0.276 NA
ATOM     16  C   UNL     1     142.208  98.752 133.921  1.00  0.00     0.220 C 
ENDROOT
BRANCH  14  17
ATOM     17  C   UNL     1     142.657  95.123 133.211  1.00  0.00     0.019 A 
ATOM     18  C   UNL     1     141.624  94.230 133.522  1.00  0.00     0.012 A 
ATOM     19  C   UNL     1     143.604  94.798 132.233  1.00  0.00     0.050 A 
ATOM     20  C   UNL     1     141.544  93.005 132.860  1.00  0.00     0.001 A 
ATOM     21  C   UNL     1     143.516  93.568 131.576  1.00  0.00     0.021 A 
ATOM     22  C   UNL     1     142.489  92.674 131.889  1.00  0.00     0.002 A 
ATOM     23  Cl  UNL     1     144.927  95.835 131.843  1.00  0.00    -0.084 Cl
ENDBRANCH  14  17
TORSDOF 1
ENDMDL
MODEL 6
REMARK VINA RESULT:    -6.329      3.224      5.373
REMARK INTER + INTRA:          -7.319
REMARK INTER:                  -6.692
REMARK INTRA:                  -0.627
REMARK UNBOUND:                -0.620
REMARK SMILES Cc1nnc2n1-c1ccc(Cl)cc1C(c1ccccc1Cl)=NC2
REMARK SMILES IDX 1 1 2 2 3 3 4 4 5 5 6 6 7 7 8 8 9 9 10 10 11 11 12 12 13 13
REMARK SMILES IDX 14 14 22 15 23 16 15 17 16 18 20 19 17 20 19 21 18 22 21 23
REMARK H PARENT
ROOT
ATOM      1  C   UNL     1     138.685  99.153 133.191  1.00  0.00     0.090 C 
ATOM      2  C   UNL     1     140.028  99.240 132.572  1.00  0.00     0.134 A 
ATOM      3  N   UNL     1     140.270  99.825 131.416  1.00  0.00    -0.135 NA
ATOM      4  N   UNL     1     141.570  99.586 131.077  1.00  0.00    -0.133 NA
ATOM      5  C   UNL     1     142.112  98.862 132.032  1.00  0.00     0.159 A 
ATOM      6  N   UNL     1     141.193  98.643 133.035  1.00  0.00    -0.281 N 
ATOM      7  C   UNL     1     141.457  98.003 134.274  1.00  0.00     0.058 A 
ATOM      8  C   UNL     1     140.799  98.457 135.430  1.00  0.00     0.029 A 
ATOM      9  C   UNL     1     141.070  97.887 136.675  1.00  0.00     0.023 A 
ATOM     10  C   UNL     1     142.007  96.867 136.779  1.00  0.00     0.041 A 
ATOM     11  Cl  UNL     1     142.348  96.172 138.314  1.00  0.00    -0.084 Cl
ATOM     12  C   UNL     1     142.672  96.404 135.646  1.00  0.00     0.033 A 
ATOM     13  C   UNL     1     142.403  96.960 134.382  1.00  0.00     0.026 A 
ATOM     14  C   UNL     1     143.081  96.331 133.202  1.00  0.00     0.076 C 
ATOM     15  N   UNL     1     143.566  96.950 132.183  1.00  0.00    -0.276 NA
ATOM     16  C   UNL     1     143.514  98.404 132.118  1.00  0.00     0.220 C 
ENDROOT
BRANCH  14  17
ATOM     17  C   UNL     1     143.168  94.848 133.172  1.00  0.00     0.019 A 
ATOM     18  C   UNL     1     142.035  94.134 132.761  1.00  0.00     0.012 A 
ATOM     19  C   UNL     1     144.345  94.172 133.513  1.00  0.00     0.050 A 
ATOM     20  C   UNL     1     142.077  92.741 132.703  1.00  0.00     0.001 A 
ATOM     21  C   UNL     1     144.378  92.776 133.453  1.00  0.00     0.021 A 
ATOM     22  C   UNL     1     143.247  92.063 133.049  1.00  0.00     0.002 A 
ATOM     23  Cl  UNL     1     145.756  94.995 134.073  1.00  0.00    -0.084 Cl
ENDBRANCH  14  17
TORSDOF 1
ENDMDL
MODEL 7
REMARK VINA RESULT:    -6.264      3.176      4.852
REMARK INTER + INTRA:          -7.250
REMARK INTER:                  -6.630
REMARK INTRA:                  -0.620
REMARK UNBOUND:                -0.620
REMARK SMILES Cc1nnc2n1-c1ccc(Cl)cc1C(c1ccccc1Cl)=NC2
REMARK SMILES IDX 1 1 2 2 3 3 4 4 5 5 6 6 7 7 8 8 9 9 10 10 11 11 12 12 13 13
REMARK SMILES IDX 14 14 22 15 23 16 15 17 16 18 20 19 17 20 19 21 18 22 21 23
REMARK H PARENT
ROOT
ATOM      1  C   UNL     1     145.415  94.977 135.846  1.00  0.00     0.090 C 
ATOM      2  C   UNL     1     144.411  94.297 134.994  1.00  0.00     0.134 A 
ATOM      3  N   UNL     1     144.706  93.361 134.113  1.00  0.00    -0.135 NA
ATOM      4  N   UNL     1     143.577  93.069 133.403  1.00  0.00    -0.133 NA
ATOM      5  C   UNL     1     142.603  93.825 133.861  1.00  0.00     0.159 A 
ATOM      6  N   UNL     1     143.059  94.600 134.904  1.00  0.00    -0.281 N 
ATOM      7  C   UNL     1     142.262  95.449 135.716  1.00  0.00     0.058 A 
ATOM      8  C   UNL     1     142.572  95.575 137.082  1.00  0.00     0.029 A 
ATOM      9  C   UNL     1     141.780  96.360 137.923  1.00  0.00     0.023 A 
ATOM     10  C   UNL     1     140.669  97.016 137.411  1.00  0.00     0.041 A 
ATOM     11  Cl  UNL     1     139.689  97.974 138.449  1.00  0.00    -0.084 Cl
ATOM     12  C   UNL     1     140.342  96.901 136.062  1.00  0.00     0.033 A 
ATOM     13  C   UNL     1     141.135  96.123 135.198  1.00  0.00     0.026 A 
ATOM     14  C   UNL     1     140.778  96.142 133.743  1.00  0.00     0.076 C 
ATOM     15  N   UNL     1     140.810  95.138 132.937  1.00  0.00    -0.276 NA
ATOM     16  C   UNL     1     141.190  93.820 133.427  1.00  0.00     0.220 C 
ENDROOT
BRANCH  14  17
ATOM     17  C   UNL     1     140.390  97.448 133.148  1.00  0.00     0.019 A 
ATOM     18  C   UNL     1     139.025  97.702 132.961  1.00  0.00     0.012 A 
ATOM     19  C   UNL     1     141.344  98.413 132.806  1.00  0.00     0.050 A 
ATOM     20  C   UNL     1     138.615  98.921 132.421  1.00  0.00     0.001 A 
ATOM     21  C   UNL     1     140.923  99.631 132.264  1.00  0.00     0.021 A 
ATOM     22  C   UNL     1     139.563  99.884 132.072  1.00  0.00     0.002 A 
ATOM     23  Cl  UNL     1     143.040  98.137 132.967  1.00  0.00    -0.084 Cl
ENDBRANCH  14  17
TORSDOF 1
ENDMDL
MODEL 8
REMARK VINA RESULT:    -6.207      1.664      1.987
REMARK INTER + INTRA:          -7.190
REMARK INTER:                  -6.720
REMARK INTRA:                  -0.470
REMARK UNBOUND:                -0.620
REMARK SMILES Cc1nnc2n1-c1ccc(Cl)cc1C(c1ccccc1Cl)=NC2
REMARK SMILES IDX 1 1 2 2 3 3 4 4 5 5 6 6 7 7 8 8 9 9 10 10 11 11 12 12 13 13
REMARK SMILES IDX 14 14 22 15 23 16 15 17 16 18 20 19 17 20 19 21 18 22 21 23
REMARK H PARENT
ROOT
ATOM      1  C   UNL     1     142.347  95.436 138.013  1.00  0.00     0.090 C 
ATOM      2  C   UNL     1     141.576  96.646 137.643  1.00  0.00     0.134 A 
ATOM      3  N   UNL     1     140.713  97.243 138.442  1.00  0.00    -0.135 NA
ATOM      4  N   UNL     1     140.077  98.221 137.734  1.00  0.00    -0.133 NA
ATOM      5  C   UNL     1     140.561  98.216 136.511  1.00  0.00     0.159 A 
ATOM      6  N   UNL     1     141.550  97.263 136.400  1.00  0.00    -0.281 N 
ATOM      7  C   UNL     1     142.374  97.054 135.263  1.00  0.00     0.058 A 
ATOM      8  C   UNL     1     143.716  96.677 135.453  1.00  0.00     0.029 A 
ATOM      9  C   UNL     1     144.570  96.511 134.362  1.00  0.00     0.023 A 
ATOM     10  C   UNL     1     144.098  96.730 133.075  1.00  0.00     0.041 A 
ATOM     11  Cl  UNL     1     145.154  96.536 131.731  1.00  0.00    -0.084 Cl
ATOM     12  C   UNL     1     142.774  97.107 132.865  1.00  0.00     0.033 A 
ATOM     13  C   UNL     1     141.895  97.268 133.952  1.00  0.00     0.026 A 
ATOM     14  C   UNL     1     140.462  97.567 133.633  1.00  0.00     0.076 C 
ATOM     15  N   UNL     1     139.692  98.376 134.272  1.00  0.00    -0.276 NA
ATOM     16  C   UNL     1     140.206  99.131 135.407  1.00  0.00     0.220 C 
ENDROOT
BRANCH  14  17
ATOM     17  C   UNL     1     139.844  96.832 132.498  1.00  0.00     0.019 A 
ATOM     18  C   UNL     1     139.328  97.585 131.435  1.00  0.00     0.012 A 
ATOM     19  C   UNL     1     139.796  95.434 132.465  1.00  0.00     0.050 A 
ATOM     20  C   UNL     1     138.754  96.936 130.342  1.00  0.00     0.001 A 
ATOM     21  C   UNL     1     139.217  94.793 131.366  1.00  0.00     0.021 A 
ATOM     22  C   UNL     1     138.697  95.542 130.308  1.00  0.00     0.002 A 
ATOM     23  Cl  UNL     1     140.371  94.457 133.767  1.00  0.00    -0.084 Cl
ENDBRANCH  14  17
TORSDOF 1
ENDMDL
MODEL 9
REMARK VINA RESULT:    -6.149      2.467      5.387
REMARK INTER + INTRA:          -7.128
REMARK INTER:                  -6.495
REMARK INTRA:                  -0.634
REMARK UNBOUND:                -0.620
REMARK SMILES Cc1nnc2n1-c1ccc(Cl)cc1C(c1ccccc1Cl)=NC2
REMARK SMILES IDX 1 1 2 2 3 3 4 4 5 5 6 6 7 7 8 8 9 9 10 10 11 11 12 12 13 13
REMARK SMILES IDX 14 14 22 15 23 16 15 17 16 18 20 19 17 20 19 21 18 22 21 23
REMARK H PARENT
ROOT
ATOM      1  C   UNL     1     140.026  99.146 134.623  1.00  0.00     0.090 C 
ATOM      2  C   UNL     1     140.501  98.329 135.765  1.00  0.00     0.134 A 
ATOM      3  N   UNL     1     140.619  98.783 136.997  1.00  0.00    -0.135 NA
ATOM      4  N   UNL     1     141.224  97.821 137.753  1.00  0.00    -0.133 NA
ATOM      5  C   UNL     1     141.466  96.787 136.977  1.00  0.00     0.159 A 
ATOM      6  N   UNL     1     140.990  97.031 135.706  1.00  0.00    -0.281 N 
ATOM      7  C   UNL     1     140.969  96.098 134.637  1.00  0.00     0.058 A 
ATOM      8  C   UNL     1     139.892  96.120 133.733  1.00  0.00     0.029 A 
ATOM      9  C   UNL     1     139.810  95.186 132.699  1.00  0.00     0.023 A 
ATOM     10  C   UNL     1     140.795  94.217 132.564  1.00  0.00     0.041 A 
ATOM     11  Cl  UNL     1     140.689  93.060 131.296  1.00  0.00    -0.084 Cl
ATOM     12  C   UNL     1     141.869  94.175 133.450  1.00  0.00     0.033 A 
ATOM     13  C   UNL     1     141.973  95.116 134.492  1.00  0.00     0.026 A 
ATOM     14  C   UNL     1     143.213  95.068 135.332  1.00  0.00     0.076 C 
ATOM     15  N   UNL     1     143.278  95.249 136.605  1.00  0.00    -0.276 NA
ATOM     16  C   UNL     1     142.065  95.495 137.371  1.00  0.00     0.220 C 
ENDROOT
BRANCH  14  17
ATOM     17  C   UNL     1     144.505  94.836 134.635  1.00  0.00     0.019 A 
ATOM     18  C   UNL     1     145.088  93.567 134.743  1.00  0.00     0.012 A 
ATOM     19  C   UNL     1     145.119  95.835 133.869  1.00  0.00     0.050 A 
ATOM     20  C   UNL     1     146.293  93.301 134.093  1.00  0.00     0.001 A 
ATOM     21  C   UNL     1     146.326  95.558 133.222  1.00  0.00     0.021 A 
ATOM     22  C   UNL     1     146.911  94.295 133.334  1.00  0.00     0.002 A 
ATOM     23  Cl  UNL     1     144.474  97.430 133.740  1.00  0.00    -0.084 Cl
ENDBRANCH  14  17
TORSDOF 1
ENDMDL
