MODEL 1
REMARK VINA RESULT:    -7.614      0.000      0.000
REMARK INTER + INTRA:          -8.416
REMARK INTER:                  -8.059
REMARK INTRA:                  -0.357
REMARK UNBOUND:                -0.357
REMARK SMILES Cc1ncc2n1-c1ccc(Cl)cc1C(c1ccccc1F)=NC2
REMARK SMILES IDX 1 1 2 2 3 3 4 4 5 5 6 6 7 7 8 8 9 9 10 10 11 11 12 12 13 13
REMARK SMILES IDX 14 14 22 15 23 16 15 17 16 18 20 19 17 20 19 21 18 22 21 23
REMARK H PARENT
ROOT
ATOM      1  C   UNL     1     144.156  98.567 134.547  1.00  0.00     0.088 C 
ATOM      2  C   UNL     1     143.934  97.130 134.856  1.00  0.00     0.110 A 
ATOM      3  N   UNL     1     144.687  96.162 134.366  1.00  0.00    -0.241 NA
ATOM      4  C   UNL     1     144.289  95.022 134.996  1.00  0.00     0.137 A 
ATOM      5  C   UNL     1     143.258  95.280 135.867  1.00  0.00     0.064 A 
ATOM      6  N   UNL     1     143.003  96.632 135.764  1.00  0.00    -0.298 N 
ATOM      7  C   UNL     1     141.951  97.310 136.440  1.00  0.00     0.057 A 
ATOM      8  C   UNL     1     141.276  98.354 135.787  1.00  0.00     0.029 A 
ATOM      9  C   UNL     1     140.204  99.002 136.405  1.00  0.00     0.023 A 
ATOM     10  C   UNL     1     139.792  98.605 137.672  1.00  0.00     0.041 A 
ATOM     11  Cl  UNL     1     138.465  99.398 138.426  1.00  0.00    -0.084 Cl
ATOM     12  C   UNL     1     140.445  97.569 138.333  1.00  0.00     0.033 A 
ATOM     13  C   UNL     1     141.535  96.916 137.729  1.00  0.00     0.026 A 
ATOM     14  C   UNL     1     142.250  95.882 138.546  1.00  0.00     0.077 C 
ATOM     15  N   UNL     1     142.683  94.747 138.117  1.00  0.00    -0.278 NA
ATOM     16  C   UNL     1     142.471  94.379 136.729  1.00  0.00     0.198 C 
ENDROOT
BRANCH  14  17
ATOM     17  C   UNL     1     142.516  96.201 139.972  1.00  0.00     0.036 A 
ATOM     18  C   UNL     1     141.516  95.993 140.929  1.00  0.00     0.013 A 
ATOM     19  C   UNL     1     143.753  96.719 140.353  1.00  0.00     0.132 A 
ATOM     20  C   UNL     1     141.770  96.301 142.267  1.00  0.00     0.001 A 
ATOM     21  C   UNL     1     144.005  97.025 141.687  1.00  0.00     0.040 A 
ATOM     22  C   UNL     1     143.012  96.815 142.645  1.00  0.00     0.003 A 
ATOM     23  F   UNL     1     144.736  96.889 139.456  1.00  0.00    -0.206 F 
ENDBRANCH  14  17
TORSDOF 1
ENDMDL
MODEL 2
REMARK VINA RESULT:    -7.268      3.385      5.059
REMARK INTER + INTRA:          -8.050
REMARK INTER:                  -7.699
REMARK INTRA:                  -0.351
REMARK UNBOUND:                -0.357
REMARK SMILES Cc1ncc2n1-c1ccc(Cl)cc1C(c1ccccc1F)=NC2
REMARK SMILES IDX 1 1 2 2 3 3 4 4 5 5 6 6 7 7 8 8 9 9 10 10 11 11 12 12 13 13
REMARK SMILES IDX 14 14 22 15 23 16 15 17 16 18 20 19 17 20 19 21 18 22 21 23
REMARK H PARENT
ROOT
ATOM      1  C   UNL     1     138.218  95.749 133.282  1.00  0.00     0.088 C 
ATOM      2  C   UNL     1     139.057  96.973 133.376  1.00  0.00     0.110 A 
ATOM      3  N   UNL     1     138.569  98.193 133.243  1.00  0.00    -0.241 NA
ATOM      4  C   UNL     1     139.589  99.041 133.555  1.00  0.00     0.137 A 
ATOM      5  C   UNL     1     140.731  98.339 133.858  1.00  0.00     0.064 A 
ATOM      6  N   UNL     1     140.406  97.006 133.719  1.00  0.00    -0.298 N 
ATOM      7  C   UNL     1     141.327  95.931 133.862  1.00  0.00     0.057 A 
ATOM      8  C   UNL     1     141.207  94.809 133.025  1.00  0.00     0.029 A 
ATOM      9  C   UNL     1     142.128  93.762 133.106  1.00  0.00     0.023 A 
ATOM     10  C   UNL     1     143.180  93.833 134.012  1.00  0.00     0.041 A 
ATOM     11  Cl  UNL     1     144.318  92.547 134.102  1.00  0.00    -0.084 Cl
ATOM     12  C   UNL     1     143.318  94.939 134.847  1.00  0.00     0.033 A 
ATOM     13  C   UNL     1     142.390  95.995 134.786  1.00  0.00     0.026 A 
ATOM     14  C   UNL     1     142.547  97.100 135.787  1.00  0.00     0.077 C 
ATOM     15  N   UNL     1     142.409  98.359 135.550  1.00  0.00    -0.278 NA
ATOM     16  C   UNL     1     142.087  98.803 134.206  1.00  0.00     0.198 C 
ENDROOT
BRANCH  14  17
ATOM     17  C   UNL     1     142.859  96.716 137.187  1.00  0.00     0.036 A 
ATOM     18  C   UNL     1     144.182  96.442 137.554  1.00  0.00     0.013 A 
ATOM     19  C   UNL     1     141.836  96.615 138.128  1.00  0.00     0.132 A 
ATOM     20  C   UNL     1     144.469  96.075 138.870  1.00  0.00     0.001 A 
ATOM     21  C   UNL     1     142.123  96.250 139.441  1.00  0.00     0.040 A 
ATOM     22  C   UNL     1     143.441  95.980 139.812  1.00  0.00     0.003 A 
ATOM     23  F   UNL     1     140.569  96.911 137.805  1.00  0.00    -0.206 F 
ENDBRANCH  14  17
TORSDOF 1
ENDMDL
MODEL 3
REMARK VINA RESULT:    -6.940      3.453      6.312
REMARK INTER + INTRA:          -7.703
REMARK INTER:                  -7.070
REMARK INTRA:                  -0.632
REMARK UNBOUND:                -0.357
REMARK SMILES Cc1ncc2n1-c1ccc(Cl)cc1C(c1ccccc1F)=NC2
REMARK SMILES IDX 1 1 2 2 3 3 4 4 5 5 6 6 7 7 8 8 9 9 10 10 11 11 12 12 13 13
REMARK SMILES IDX 14 14 22 15 23 16 15 17 16 18 20 19 17 20 19 21 18 22 21 23
REMARK H PARENT
ROOT
ATOM      1  C   UNL     1     145.081  94.286 135.723  1.00  0.00     0.088 C 
ATOM      2  C   UNL     1     145.266  95.254 134.611  1.00  0.00     0.110 A 
ATOM      3  N   UNL     1     146.220  95.137 133.705  1.00  0.00    -0.241 NA
ATOM      4  C   UNL     1     145.970  96.098 132.771  1.00  0.00     0.137 A 
ATOM      5  C   UNL     1     144.864  96.837 133.116  1.00  0.00     0.064 A 
ATOM      6  N   UNL     1     144.419  96.320 134.315  1.00  0.00    -0.298 N 
ATOM      7  C   UNL     1     143.336  96.847 135.071  1.00  0.00     0.057 A 
ATOM      8  C   UNL     1     143.410  96.841 136.473  1.00  0.00     0.029 A 
ATOM      9  C   UNL     1     142.387  97.401 137.241  1.00  0.00     0.023 A 
ATOM     10  C   UNL     1     141.289  97.980 136.614  1.00  0.00     0.041 A 
ATOM     11  Cl  UNL     1     140.035  98.678 137.562  1.00  0.00    -0.084 Cl
ATOM     12  C   UNL     1     141.199  98.000 135.225  1.00  0.00     0.033 A 
ATOM     13  C   UNL     1     142.216  97.428 134.440  1.00  0.00     0.026 A 
ATOM     14  C   UNL     1     141.998  97.397 132.957  1.00  0.00     0.077 C 
ATOM     15  N   UNL     1     142.887  97.641 132.057  1.00  0.00    -0.278 NA
ATOM     16  C   UNL     1     144.234  97.999 132.461  1.00  0.00     0.198 C 
ENDROOT
BRANCH  14  17
ATOM     17  C   UNL     1     140.645  97.020 132.473  1.00  0.00     0.036 A 
ATOM     18  C   UNL     1     140.229  95.686 132.544  1.00  0.00     0.013 A 
ATOM     19  C   UNL     1     139.799  97.991 131.937  1.00  0.00     0.132 A 
ATOM     20  C   UNL     1     138.959  95.336 132.081  1.00  0.00     0.001 A 
ATOM     21  C   UNL     1     138.533  97.641 131.478  1.00  0.00     0.040 A 
ATOM     22  C   UNL     1     138.112  96.312 131.550  1.00  0.00     0.003 A 
ATOM     23  F   UNL     1     140.166  99.280 131.898  1.00  0.00    -0.206 F 
ENDBRANCH  14  17
TORSDOF 1
ENDMDL
MODEL 4
REMARK VINA RESULT:    -6.928      4.312      7.030
REMARK INTER + INTRA:          -7.690
REMARK INTER:                  -7.090
REMARK INTRA:                  -0.601
REMARK UNBOUND:                -0.357
REMARK SMILES Cc1ncc2n1-c1ccc(Cl)cc1C(c1ccccc1F)=NC2
REMARK SMILES IDX 1 1 2 2 3 3 4 4 5 5 6 6 7 7 8 8 9 9 10 10 11 11 12 12 13 13
REMARK SMILES IDX 14 14 22 15 23 16 15 17 16 18 20 19 17 20 19 21 18 22 21 23
REMARK H PARENT
ROOT
ATOM      1  C   UNL     1     142.199  94.806 136.735  1.00  0.00     0.088 C 
ATOM      2  C   UNL     1     142.886  95.045 135.438  1.00  0.00     0.110 A 
ATOM      3  N   UNL     1     143.863  94.279 134.988  1.00  0.00    -0.241 NA
ATOM      4  C   UNL     1     144.117  94.704 133.718  1.00  0.00     0.137 A 
ATOM      5  C   UNL     1     143.307  95.763 133.387  1.00  0.00     0.064 A 
ATOM      6  N   UNL     1     142.529  96.009 134.499  1.00  0.00    -0.298 N 
ATOM      7  C   UNL     1     141.601  97.081 134.615  1.00  0.00     0.057 A 
ATOM      8  C   UNL     1     141.452  97.729 135.852  1.00  0.00     0.029 A 
ATOM      9  C   UNL     1     140.589  98.819 135.982  1.00  0.00     0.023 A 
ATOM     10  C   UNL     1     139.879  99.277 134.878  1.00  0.00     0.041 A 
ATOM     11  Cl  UNL     1     138.824 100.626 135.040  1.00  0.00    -0.084 Cl
ATOM     12  C   UNL     1     140.017  98.650 133.642  1.00  0.00     0.033 A 
ATOM     13  C   UNL     1     140.872  97.543 133.499  1.00  0.00     0.026 A 
ATOM     14  C   UNL     1     140.888  96.861 132.164  1.00  0.00     0.077 C 
ATOM     15  N   UNL     1     141.933  96.418 131.554  1.00  0.00    -0.278 NA
ATOM     16  C   UNL     1     143.240  96.583 132.163  1.00  0.00     0.198 C 
ENDROOT
BRANCH  14  17
ATOM     17  C   UNL     1     139.581  96.643 131.492  1.00  0.00     0.036 A 
ATOM     18  C   UNL     1     138.795  95.540 131.844  1.00  0.00     0.013 A 
ATOM     19  C   UNL     1     139.147  97.527 130.505  1.00  0.00     0.132 A 
ATOM     20  C   UNL     1     137.571  95.336 131.205  1.00  0.00     0.001 A 
ATOM     21  C   UNL     1     137.926  97.324 129.869  1.00  0.00     0.040 A 
ATOM     22  C   UNL     1     137.136  96.227 130.219  1.00  0.00     0.003 A 
ATOM     23  F   UNL     1     139.869  98.610 130.182  1.00  0.00    -0.206 F 
ENDBRANCH  14  17
TORSDOF 1
ENDMDL
MODEL 5
REMARK VINA RESULT:    -6.793      2.965      5.825
REMARK INTER + INTRA:          -7.547
REMARK INTER:                  -6.922
REMARK INTRA:                  -0.626
REMARK UNBOUND:                -0.357
REMARK SMILES Cc1ncc2n1-c1ccc(Cl)cc1C(c1ccccc1F)=NC2
REMARK SMILES IDX 1 1 2 2 3 3 4 4 5 5 6 6 7 7 8 8 9 9 10 10 11 11 12 12 13 13
REMARK SMILES IDX 14 14 22 15 23 16 15 17 16 18 20 19 17 20 19 21 18 22 21 23
REMARK H PARENT
ROOT
ATOM      1  C   UNL     1     144.168  93.461 134.434  1.00  0.00     0.088 C 
ATOM      2  C   UNL     1     144.668  94.798 134.016  1.00  0.00     0.110 A 
ATOM      3  N   UNL     1     145.597  94.964 133.093  1.00  0.00    -0.241 NA
ATOM      4  C   UNL     1     145.667  96.306 132.869  1.00  0.00     0.137 A 
ATOM      5  C   UNL     1     144.791  96.983 133.683  1.00  0.00     0.064 A 
ATOM      6  N   UNL     1     144.162  96.022 134.446  1.00  0.00    -0.298 N 
ATOM      7  C   UNL     1     143.228  96.298 135.484  1.00  0.00     0.057 A 
ATOM      8  C   UNL     1     143.228  95.497 136.637  1.00  0.00     0.029 A 
ATOM      9  C   UNL     1     142.360  95.776 137.695  1.00  0.00     0.023 A 
ATOM     10  C   UNL     1     141.496  96.862 137.614  1.00  0.00     0.041 A 
ATOM     11  Cl  UNL     1     140.436  97.210 138.922  1.00  0.00    -0.084 Cl
ATOM     12  C   UNL     1     141.485  97.671 136.480  1.00  0.00     0.033 A 
ATOM     13  C   UNL     1     142.344  97.393 135.402  1.00  0.00     0.026 A 
ATOM     14  C   UNL     1     142.200  98.247 134.177  1.00  0.00     0.077 C 
ATOM     15  N   UNL     1     143.166  98.712 133.462  1.00  0.00    -0.278 NA
ATOM     16  C   UNL     1     144.538  98.427 133.842  1.00  0.00     0.198 C 
ENDROOT
BRANCH  14  17
ATOM     17  C   UNL     1     140.822  98.562 133.722  1.00  0.00     0.036 A 
ATOM     18  C   UNL     1     140.342  99.873 133.816  1.00  0.00     0.013 A 
ATOM     19  C   UNL     1     140.005  97.552 133.214  1.00  0.00     0.132 A 
ATOM     20  C   UNL     1     139.044 100.163 133.393  1.00  0.00     0.001 A 
ATOM     21  C   UNL     1     138.712  97.842 132.791  1.00  0.00     0.040 A 
ATOM     22  C   UNL     1     138.230  99.150 132.880  1.00  0.00     0.003 A 
ATOM     23  F   UNL     1     140.461  96.298 133.080  1.00  0.00    -0.206 F 
ENDBRANCH  14  17
TORSDOF 1
ENDMDL
MODEL 6
REMARK VINA RESULT:    -6.738      4.559      6.301
REMARK INTER + INTRA:          -7.489
REMARK INTER:                  -6.895
REMARK INTRA:                  -0.595
REMARK UNBOUND:                -0.357
REMARK SMILES Cc1ncc2n1-c1ccc(Cl)cc1C(c1ccccc1F)=NC2
REMARK SMILES IDX 1 1 2 2 3 3 4 4 5 5 6 6 7 7 8 8 9 9 10 10 11 11 12 12 13 13
REMARK SMILES IDX 14 14 22 15 23 16 15 17 16 18 20 19 17 20 19 21 18 22 21 23
REMARK H PARENT
ROOT
ATOM      1  C   UNL     1     137.625  95.409 130.823  1.00  0.00     0.088 C 
ATOM      2  C   UNL     1     138.434  96.654 130.751  1.00  0.00     0.110 A 
ATOM      3  N   UNL     1     137.986  97.775 130.219  1.00  0.00    -0.241 NA
ATOM      4  C   UNL     1     138.931  98.720 130.484  1.00  0.00     0.137 A 
ATOM      5  C   UNL     1     139.991  98.172 131.165  1.00  0.00     0.064 A 
ATOM      6  N   UNL     1     139.694  96.834 131.318  1.00  0.00    -0.298 N 
ATOM      7  C   UNL     1     140.565  95.874 131.903  1.00  0.00     0.057 A 
ATOM      8  C   UNL     1     140.603  94.572 131.379  1.00  0.00     0.029 A 
ATOM      9  C   UNL     1     141.488  93.624 131.897  1.00  0.00     0.023 A 
ATOM     10  C   UNL     1     142.347  93.971 132.934  1.00  0.00     0.041 A 
ATOM     11  Cl  UNL     1     143.442  92.804 133.563  1.00  0.00    -0.084 Cl
ATOM     12  C   UNL     1     142.327  95.258 133.464  1.00  0.00     0.033 A 
ATOM     13  C   UNL     1     141.432  96.220 132.961  1.00  0.00     0.026 A 
ATOM     14  C   UNL     1     141.400  97.550 133.652  1.00  0.00     0.077 C 
ATOM     15  N   UNL     1     141.314  98.699 133.076  1.00  0.00    -0.278 NA
ATOM     16  C   UNL     1     141.258  98.771 131.627  1.00  0.00     0.198 C 
ENDROOT
BRANCH  14  17
ATOM     17  C   UNL     1     141.436  97.550 135.137  1.00  0.00     0.036 A 
ATOM     18  C   UNL     1     140.253  97.359 135.860  1.00  0.00     0.013 A 
ATOM     19  C   UNL     1     142.642  97.752 135.806  1.00  0.00     0.132 A 
ATOM     20  C   UNL     1     140.291  97.367 137.256  1.00  0.00     0.001 A 
ATOM     21  C   UNL     1     142.680  97.758 137.198  1.00  0.00     0.040 A 
ATOM     22  C   UNL     1     141.503  97.565 137.924  1.00  0.00     0.003 A 
ATOM     23  F   UNL     1     143.791  97.897 135.130  1.00  0.00    -0.206 F 
ENDBRANCH  14  17
TORSDOF 1
ENDMDL
MODEL 7
REMARK VINA RESULT:    -6.725      3.235      4.897
REMARK INTER + INTRA:          -7.475
REMARK INTER:                  -6.852
REMARK INTRA:                  -0.623
REMARK UNBOUND:                -0.357
REMARK SMILES Cc1ncc2n1-c1ccc(Cl)cc1C(c1ccccc1F)=NC2
REMARK SMILES IDX 1 1 2 2 3 3 4 4 5 5 6 6 7 7 8 8 9 9 10 10 11 11 12 12 13 13
REMARK SMILES IDX 14 14 22 15 23 16 15 17 16 18 20 19 17 20 19 21 18 22 21 23
REMARK H PARENT
ROOT
ATOM      1  C   UNL     1     141.350  93.399 132.882  1.00  0.00     0.088 C 
ATOM      2  C   UNL     1     141.459  94.860 133.138  1.00  0.00     0.110 A 
ATOM      3  N   UNL     1     140.558  95.733 132.727  1.00  0.00    -0.241 NA
ATOM      4  C   UNL     1     140.909  96.925 133.285  1.00  0.00     0.137 A 
ATOM      5  C   UNL     1     142.058  96.796 134.028  1.00  0.00     0.064 A 
ATOM      6  N   UNL     1     142.436  95.475 133.917  1.00  0.00    -0.298 N 
ATOM      7  C   UNL     1     143.626  94.925 134.471  1.00  0.00     0.057 A 
ATOM      8  C   UNL     1     144.321  93.935 133.758  1.00  0.00     0.029 A 
ATOM      9  C   UNL     1     145.520  93.415 134.252  1.00  0.00     0.023 A 
ATOM     10  C   UNL     1     146.037  93.888 135.452  1.00  0.00     0.041 A 
ATOM     11  Cl  UNL     1     147.519  93.253 136.052  1.00  0.00    -0.084 Cl
ATOM     12  C   UNL     1     145.365  94.872 136.171  1.00  0.00     0.033 A 
ATOM     13  C   UNL     1     144.150  95.395 135.693  1.00  0.00     0.026 A 
ATOM     14  C   UNL     1     143.435  96.376 136.574  1.00  0.00     0.077 C 
ATOM     15  N   UNL     1     142.840  97.449 136.182  1.00  0.00    -0.278 NA
ATOM     16  C   UNL     1     142.846  97.796 134.772  1.00  0.00     0.198 C 
ENDROOT
BRANCH  14  17
ATOM     17  C   UNL     1     143.375  96.073 138.026  1.00  0.00     0.036 A 
ATOM     18  C   UNL     1     144.076  96.877 138.933  1.00  0.00     0.013 A 
ATOM     19  C   UNL     1     142.634  94.984 138.483  1.00  0.00     0.132 A 
ATOM     20  C   UNL     1     144.022  96.584 140.297  1.00  0.00     0.001 A 
ATOM     21  C   UNL     1     142.579  94.694 139.844  1.00  0.00     0.040 A 
ATOM     22  C   UNL     1     143.274  95.495 140.752  1.00  0.00     0.003 A 
ATOM     23  F   UNL     1     141.925  94.227 137.634  1.00  0.00    -0.206 F 
ENDBRANCH  14  17
TORSDOF 1
ENDMDL
MODEL 8
REMARK VINA RESULT:    -6.673      3.204      5.549
REMARK INTER + INTRA:          -7.420
REMARK INTER:                  -6.800
REMARK INTRA:                  -0.620
REMARK UNBOUND:                -0.357
REMARK SMILES Cc1ncc2n1-c1ccc(Cl)cc1C(c1ccccc1F)=NC2
REMARK SMILES IDX 1 1 2 2 3 3 4 4 5 5 6 6 7 7 8 8 9 9 10 10 11 11 12 12 13 13
REMARK SMILES IDX 14 14 22 15 23 16 15 17 16 18 20 19 17 20 19 21 18 22 21 23
REMARK H PARENT
ROOT
ATOM      1  C   UNL     1     139.609 100.315 134.191  1.00  0.00     0.088 C 
ATOM      2  C   UNL     1     139.261  98.984 133.625  1.00  0.00     0.110 A 
ATOM      3  N   UNL     1     138.582  98.834 132.503  1.00  0.00    -0.241 NA
ATOM      4  C   UNL     1     138.607  97.500 132.226  1.00  0.00     0.137 A 
ATOM      5  C   UNL     1     139.285  96.811 133.202  1.00  0.00     0.064 A 
ATOM      6  N   UNL     1     139.688  97.756 134.123  1.00  0.00    -0.298 N 
ATOM      7  C   UNL     1     140.358  97.461 135.343  1.00  0.00     0.057 A 
ATOM      8  C   UNL     1     140.062  98.217 136.489  1.00  0.00     0.029 A 
ATOM      9  C   UNL     1     140.663  97.917 137.713  1.00  0.00     0.023 A 
ATOM     10  C   UNL     1     141.554  96.853 137.804  1.00  0.00     0.041 A 
ATOM     11  Cl  UNL     1     142.285  96.479 139.315  1.00  0.00    -0.084 Cl
ATOM     12  C   UNL     1     141.856  96.089 136.680  1.00  0.00     0.033 A 
ATOM     13  C   UNL     1     141.268  96.388 135.438  1.00  0.00     0.026 A 
ATOM     14  C   UNL     1     141.723  95.585 134.257  1.00  0.00     0.077 C 
ATOM     15  N   UNL     1     140.967  95.127 133.318  1.00  0.00    -0.278 NA
ATOM     16  C   UNL     1     139.537  95.368 133.371  1.00  0.00     0.198 C 
ENDROOT
BRANCH  14  17
ATOM     17  C   UNL     1     143.178  95.317 134.131  1.00  0.00     0.036 A 
ATOM     18  C   UNL     1     143.683  94.055 134.464  1.00  0.00     0.013 A 
ATOM     19  C   UNL     1     144.039  96.323 133.695  1.00  0.00     0.132 A 
ATOM     20  C   UNL     1     145.052  93.809 134.350  1.00  0.00     0.001 A 
ATOM     21  C   UNL     1     145.404  96.077 133.581  1.00  0.00     0.040 A 
ATOM     22  C   UNL     1     145.912  94.819 133.909  1.00  0.00     0.003 A 
ATOM     23  F   UNL     1     143.568  97.526 133.334  1.00  0.00    -0.206 F 
ENDBRANCH  14  17
TORSDOF 1
ENDMDL
MODEL 9
REMARK VINA RESULT:    -6.581      3.847      6.327
REMARK INTER + INTRA:          -7.323
REMARK INTER:                  -6.772
REMARK INTRA:                  -0.551
REMARK UNBOUND:                -0.357
REMARK SMILES Cc1ncc2n1-c1ccc(Cl)cc1C(c1ccccc1F)=NC2
REMARK SMILES IDX 1 1 2 2 3 3 4 4 5 5 6 6 7 7 8 8 9 9 10 10 11 11 12 12 13 13
REMARK SMILES IDX 14 14 22 15 23 16 15 17 16 18 20 19 17 20 19 21 18 22 21 23
REMARK H PARENT
ROOT
ATOM      1  C   UNL     1     146.195  94.668 134.708  1.00  0.00     0.088 C 
ATOM      2  C   UNL     1     145.231  94.959 135.802  1.00  0.00     0.110 A 
ATOM      3  N   UNL     1     145.605  95.359 137.004  1.00  0.00    -0.241 NA
ATOM      4  C   UNL     1     144.458  95.681 137.665  1.00  0.00     0.137 A 
ATOM      5  C   UNL     1     143.358  95.452 136.874  1.00  0.00     0.064 A 
ATOM      6  N   UNL     1     143.844  94.960 135.681  1.00  0.00    -0.298 N 
ATOM      7  C   UNL     1     143.033  94.515 134.600  1.00  0.00     0.057 A 
ATOM      8  C   UNL     1     143.448  93.408 133.842  1.00  0.00     0.029 A 
ATOM      9  C   UNL     1     142.647  92.915 132.809  1.00  0.00     0.023 A 
ATOM     10  C   UNL     1     141.423  93.514 132.535  1.00  0.00     0.041 A 
ATOM     11  Cl  UNL     1     140.434  92.898 131.270  1.00  0.00    -0.084 Cl
ATOM     12  C   UNL     1     140.992  94.610 133.279  1.00  0.00     0.033 A 
ATOM     13  C   UNL     1     141.795  95.126 134.313  1.00  0.00     0.026 A 
ATOM     14  C   UNL     1     141.309  96.368 134.998  1.00  0.00     0.077 C 
ATOM     15  N   UNL     1     141.362  96.602 136.264  1.00  0.00    -0.278 NA
ATOM     16  C   UNL     1     141.917  95.599 137.154  1.00  0.00     0.198 C 
ENDROOT
BRANCH  14  17
ATOM     17  C   UNL     1     140.746  97.444 134.144  1.00  0.00     0.036 A 
ATOM     18  C   UNL     1     141.597  98.405 133.584  1.00  0.00     0.013 A 
ATOM     19  C   UNL     1     139.372  97.505 133.912  1.00  0.00     0.132 A 
ATOM     20  C   UNL     1     141.061  99.418 132.788  1.00  0.00     0.001 A 
ATOM     21  C   UNL     1     138.839  98.515 133.116  1.00  0.00     0.040 A 
ATOM     22  C   UNL     1     139.684  99.473 132.553  1.00  0.00     0.003 A 
ATOM     23  F   UNL     1     138.547  96.571 134.407  1.00  0.00    -0.206 F 
ENDBRANCH  14  17
TORSDOF 1
ENDMDL
