MODEL 1
REMARK VINA RESULT:    -9.699      0.000      0.000
REMARK INTER + INTRA:         -11.872
REMARK INTER:                 -11.400
REMARK INTRA:                  -0.471
REMARK UNBOUND:                -0.471
REMARK SMILES CN1CCN(C(=O)OC2c3nccnc3C(=O)N2c2ccc(Cl)cn2)CC1
REMARK SMILES IDX 9 1 10 2 11 3 12 4 13 5 14 6 15 7 16 8 17 9 18 10 8 11 6 12
REMARK SMILES IDX 2 13 3 14 27 15 4 16 26 17 5 18 7 19 1 20 19 21 20 22 25 23
REMARK SMILES IDX 21 24 24 25 22 26 23 27
REMARK H PARENT
ROOT
ATOM      1  C   UNL     1     118.346 158.133 108.796  1.00  0.00     0.338 C 
ATOM      2  C   UNL     1     117.447 157.054 108.244  1.00  0.00     0.134 A 
ATOM      3  N   UNL     1     116.255 156.636 108.729  1.00  0.00    -0.251 NA
ATOM      4  C   UNL     1     115.695 155.627 108.013  1.00  0.00     0.131 A 
ATOM      5  C   UNL     1     116.298 155.072 106.883  1.00  0.00     0.132 A 
ATOM      6  N   UNL     1     117.495 155.492 106.403  1.00  0.00    -0.247 NA
ATOM      7  C   UNL     1     118.032 156.493 107.130  1.00  0.00     0.156 A 
ATOM      8  C   UNL     1     119.308 157.172 106.864  1.00  0.00     0.283 C 
ATOM      9  O   UNL     1     120.042 156.894 105.933  1.00  0.00    -0.267 OA
ATOM     10  N   UNL     1     119.450 158.148 107.842  1.00  0.00    -0.248 N 
ENDROOT
BRANCH   1  11
ATOM     11  O   UNL     1     118.840 157.713 110.063  1.00  0.00    -0.419 OA
BRANCH  11  12
ATOM     12  C   UNL     1     118.293 158.369 111.117  1.00  0.00     0.412 C 
ATOM     13  N   UNL     1     117.061 155.672 114.289  1.00  0.00    -0.303 NA
ATOM     14  C   UNL     1     116.851 155.343 112.864  1.00  0.00     0.106 C 
ATOM     15  C   UNL     1     117.476 157.077 114.493  1.00  0.00     0.106 C 
ATOM     16  C   UNL     1     117.847 156.045 111.925  1.00  0.00     0.138 C 
ATOM     17  C   UNL     1     117.222 158.020 113.302  1.00  0.00     0.138 C 
ATOM     18  N   UNL     1     117.796 157.501 112.066  1.00  0.00    -0.306 N 
ATOM     19  O   UNL     1     118.248 159.589 111.221  1.00  0.00    -0.224 OA
ATOM     20  C   UNL     1     115.881 155.331 115.079  1.00  0.00     0.105 C 
ENDBRANCH  11  12
ENDBRANCH   1  11
BRANCH  10  21
ATOM     21  C   UNL     1     120.472 159.104 107.962  1.00  0.00     0.138 A 
ATOM     22  C   UNL     1     121.677 158.999 107.270  1.00  0.00     0.049 A 
ATOM     23  N   UNL     1     120.228 160.152 108.785  1.00  0.00    -0.237 NA
ATOM     24  C   UNL     1     122.655 159.986 107.429  1.00  0.00     0.026 A 
ATOM     25  C   UNL     1     121.191 161.098 108.926  1.00  0.00     0.134 A 
ATOM     26  C   UNL     1     122.409 161.057 108.273  1.00  0.00     0.059 A 
ATOM     27  Cl  UNL     1     123.580 162.287 108.498  1.00  0.00    -0.083 Cl
ENDBRANCH  10  21
TORSDOF 3
ENDMDL
MODEL 2
REMARK VINA RESULT:    -8.640      3.067      5.499
REMARK INTER + INTRA:         -10.627
REMARK INTER:                 -10.356
REMARK INTRA:                  -0.270
REMARK UNBOUND:                -0.471
REMARK SMILES CN1CCN(C(=O)OC2c3nccnc3C(=O)N2c2ccc(Cl)cn2)CC1
REMARK SMILES IDX 9 1 10 2 11 3 12 4 13 5 14 6 15 7 16 8 17 9 18 10 8 11 6 12
REMARK SMILES IDX 2 13 3 14 27 15 4 16 26 17 5 18 7 19 1 20 19 21 20 22 25 23
REMARK SMILES IDX 21 24 24 25 22 26 23 27
REMARK H PARENT
ROOT
ATOM      1  C   UNL     1     119.387 158.133 108.812  1.00  0.00     0.338 C 
ATOM      2  C   UNL     1     120.519 159.048 108.416  1.00  0.00     0.134 A 
ATOM      3  N   UNL     1     121.404 159.674 109.226  1.00  0.00    -0.251 NA
ATOM      4  C   UNL     1     122.301 160.448 108.563  1.00  0.00     0.131 A 
ATOM      5  C   UNL     1     122.305 160.586 107.173  1.00  0.00     0.132 A 
ATOM      6  N   UNL     1     121.414 159.959 106.366  1.00  0.00    -0.247 NA
ATOM      7  C   UNL     1     120.533 159.198 107.047  1.00  0.00     0.156 A 
ATOM      8  C   UNL     1     119.455 158.386 106.464  1.00  0.00     0.283 C 
ATOM      9  O   UNL     1     119.232 158.313 105.269  1.00  0.00    -0.267 OA
ATOM     10  N   UNL     1     118.819 157.751 107.523  1.00  0.00    -0.248 N 
ENDROOT
BRANCH   1  11
ATOM     11  O   UNL     1     118.420 158.890 109.533  1.00  0.00    -0.419 OA
BRANCH  11  12
ATOM     12  C   UNL     1     118.148 158.406 110.771  1.00  0.00     0.412 C 
ATOM     13  N   UNL     1     115.604 161.072 113.067  1.00  0.00    -0.303 NA
ATOM     14  C   UNL     1     116.694 161.584 112.213  1.00  0.00     0.106 C 
ATOM     15  C   UNL     1     115.660 159.605 113.243  1.00  0.00     0.106 C 
ATOM     16  C   UNL     1     117.055 160.637 111.055  1.00  0.00     0.138 C 
ATOM     17  C   UNL     1     117.004 158.947 112.879  1.00  0.00     0.138 C 
ATOM     18  N   UNL     1     117.442 159.310 111.536  1.00  0.00    -0.306 N 
ATOM     19  O   UNL     1     118.484 157.297 111.167  1.00  0.00    -0.224 OA
ATOM     20  C   UNL     1     115.577 161.774 114.348  1.00  0.00     0.105 C 
ENDBRANCH  11  12
ENDBRANCH   1  11
BRANCH  10  21
ATOM     21  C   UNL     1     117.775 156.812 107.463  1.00  0.00     0.138 A 
ATOM     22  C   UNL     1     117.833 155.684 106.648  1.00  0.00     0.049 A 
ATOM     23  N   UNL     1     116.700 157.051 108.252  1.00  0.00    -0.237 NA
ATOM     24  C   UNL     1     116.763 154.784 106.635  1.00  0.00     0.026 A 
ATOM     25  C   UNL     1     115.672 156.165 108.223  1.00  0.00     0.134 A 
ATOM     26  C   UNL     1     115.660 155.028 107.438  1.00  0.00     0.059 A 
ATOM     27  Cl  UNL     1     114.326 153.953 107.452  1.00  0.00    -0.083 Cl
ENDBRANCH  10  21
TORSDOF 3
ENDMDL
MODEL 3
REMARK VINA RESULT:    -8.162      3.869      6.795
REMARK INTER + INTRA:         -10.064
REMARK INTER:                  -9.424
REMARK INTRA:                  -0.640
REMARK UNBOUND:                -0.471
REMARK SMILES CN1CCN(C(=O)OC2c3nccnc3C(=O)N2c2ccc(Cl)cn2)CC1
REMARK SMILES IDX 9 1 10 2 11 3 12 4 13 5 14 6 15 7 16 8 17 9 18 10 8 11 6 12
REMARK SMILES IDX 2 13 3 14 27 15 4 16 26 17 5 18 7 19 1 20 19 21 20 22 25 23
REMARK SMILES IDX 21 24 24 25 22 26 23 27
REMARK H PARENT
ROOT
ATOM      1  C   UNL     1     117.054 157.473 114.297  1.00  0.00     0.338 C 
ATOM      2  C   UNL     1     116.466 158.427 115.307  1.00  0.00     0.134 A 
ATOM      3  N   UNL     1     116.422 158.291 116.652  1.00  0.00    -0.251 NA
ATOM      4  C   UNL     1     115.807 159.321 117.288  1.00  0.00     0.131 A 
ATOM      5  C   UNL     1     115.267 160.417 116.611  1.00  0.00     0.132 A 
ATOM      6  N   UNL     1     115.311 160.547 115.262  1.00  0.00    -0.247 NA
ATOM      7  C   UNL     1     115.925 159.513 114.654  1.00  0.00     0.156 A 
ATOM      8  C   UNL     1     116.144 159.362 113.208  1.00  0.00     0.283 C 
ATOM      9  O   UNL     1     115.782 160.177 112.379  1.00  0.00    -0.267 OA
ATOM     10  N   UNL     1     116.834 158.169 113.033  1.00  0.00    -0.248 N 
ENDROOT
BRANCH   1  11
ATOM     11  O   UNL     1     116.286 156.274 114.300  1.00  0.00    -0.419 OA
BRANCH  11  12
ATOM     12  C   UNL     1     117.001 155.158 114.587  1.00  0.00     0.412 C 
ATOM     13  N   UNL     1     115.672 153.238 118.248  1.00  0.00    -0.303 NA
ATOM     14  C   UNL     1     115.771 154.707 118.134  1.00  0.00     0.106 C 
ATOM     15  C   UNL     1     116.305 152.535 117.111  1.00  0.00     0.106 C 
ATOM     16  C   UNL     1     115.643 155.214 116.687  1.00  0.00     0.138 C 
ATOM     17  C   UNL     1     117.274 153.383 116.267  1.00  0.00     0.138 C 
ATOM     18  N   UNL     1     116.655 154.622 115.810  1.00  0.00    -0.306 N 
ATOM     19  O   UNL     1     117.851 154.676 113.850  1.00  0.00    -0.224 OA
ATOM     20  C   UNL     1     116.197 152.782 119.532  1.00  0.00     0.105 C 
ENDBRANCH  11  12
ENDBRANCH   1  11
BRANCH  10  21
ATOM     21  C   UNL     1     117.335 157.631 111.836  1.00  0.00     0.138 A 
ATOM     22  C   UNL     1     118.518 158.081 111.254  1.00  0.00     0.049 A 
ATOM     23  N   UNL     1     116.612 156.636 111.270  1.00  0.00    -0.237 NA
ATOM     24  C   UNL     1     118.967 157.503 110.062  1.00  0.00     0.026 A 
ATOM     25  C   UNL     1     117.065 156.089 110.113  1.00  0.00     0.134 A 
ATOM     26  C   UNL     1     118.227 156.487 109.479  1.00  0.00     0.059 A 
ATOM     27  Cl  UNL     1     118.738 155.751 108.019  1.00  0.00    -0.083 Cl
ENDBRANCH  10  21
TORSDOF 3
ENDMDL
MODEL 4
REMARK VINA RESULT:    -8.024      2.393      5.953
REMARK INTER + INTRA:          -9.903
REMARK INTER:                  -9.614
REMARK INTRA:                  -0.289
REMARK UNBOUND:                -0.471
REMARK SMILES CN1CCN(C(=O)OC2c3nccnc3C(=O)N2c2ccc(Cl)cn2)CC1
REMARK SMILES IDX 9 1 10 2 11 3 12 4 13 5 14 6 15 7 16 8 17 9 18 10 8 11 6 12
REMARK SMILES IDX 2 13 3 14 27 15 4 16 26 17 5 18 7 19 1 20 19 21 20 22 25 23
REMARK SMILES IDX 21 24 24 25 22 26 23 27
REMARK H PARENT
ROOT
ATOM      1  C   UNL     1     117.967 158.345 110.122  1.00  0.00     0.338 C 
ATOM      2  C   UNL     1     117.302 157.971 111.423  1.00  0.00     0.134 A 
ATOM      3  N   UNL     1     116.894 158.796 112.415  1.00  0.00    -0.251 NA
ATOM      4  C   UNL     1     116.342 158.149 113.474  1.00  0.00     0.131 A 
ATOM      5  C   UNL     1     116.210 156.760 113.531  1.00  0.00     0.132 A 
ATOM      6  N   UNL     1     116.622 155.938 112.534  1.00  0.00    -0.247 NA
ATOM      7  C   UNL     1     117.168 156.602 111.496  1.00  0.00     0.156 A 
ATOM      8  C   UNL     1     117.697 156.002 110.263  1.00  0.00     0.283 C 
ATOM      9  O   UNL     1     117.702 154.805 110.040  1.00  0.00    -0.267 OA
ATOM     10  N   UNL     1     118.132 157.052 109.465  1.00  0.00    -0.248 N 
ENDROOT
BRANCH   1  11
ATOM     11  O   UNL     1     119.254 158.883 110.405  1.00  0.00    -0.419 OA
BRANCH  11  12
ATOM     12  C   UNL     1     119.341 160.227 110.244  1.00  0.00     0.412 C 
ATOM     13  N   UNL     1     122.439 161.359 107.421  1.00  0.00    -0.303 NA
ATOM     14  C   UNL     1     122.640 160.271 108.399  1.00  0.00     0.106 C 
ATOM     15  C   UNL     1     121.217 162.148 107.690  1.00  0.00     0.106 C 
ATOM     16  C   UNL     1     121.327 159.613 108.854  1.00  0.00     0.138 C 
ATOM     17  C   UNL     1     120.624 161.986 109.102  1.00  0.00     0.138 C 
ATOM     18  N   UNL     1     120.403 160.584 109.441  1.00  0.00    -0.306 N 
ATOM     19  O   UNL     1     118.567 161.032 110.747  1.00  0.00    -0.224 OA
ATOM     20  C   UNL     1     123.627 162.205 107.335  1.00  0.00     0.105 C 
ENDBRANCH  11  12
ENDBRANCH   1  11
BRANCH  10  21
ATOM     21  C   UNL     1     118.646 156.986 108.159  1.00  0.00     0.138 A 
ATOM     22  C   UNL     1     120.008 157.084 107.887  1.00  0.00     0.049 A 
ATOM     23  N   UNL     1     117.746 156.809 107.162  1.00  0.00    -0.237 NA
ATOM     24  C   UNL     1     120.459 157.007 106.566  1.00  0.00     0.026 A 
ATOM     25  C   UNL     1     118.204 156.738 105.886  1.00  0.00     0.134 A 
ATOM     26  C   UNL     1     119.540 156.830 105.544  1.00  0.00     0.059 A 
ATOM     27  Cl  UNL     1     120.047 156.732 103.910  1.00  0.00    -0.083 Cl
ENDBRANCH  10  21
TORSDOF 3
ENDMDL
MODEL 5
REMARK VINA RESULT:    -7.895      3.925      6.879
REMARK INTER + INTRA:          -9.750
REMARK INTER:                  -8.916
REMARK INTRA:                  -0.835
REMARK UNBOUND:                -0.471
REMARK SMILES CN1CCN(C(=O)OC2c3nccnc3C(=O)N2c2ccc(Cl)cn2)CC1
REMARK SMILES IDX 9 1 10 2 11 3 12 4 13 5 14 6 15 7 16 8 17 9 18 10 8 11 6 12
REMARK SMILES IDX 2 13 3 14 27 15 4 16 26 17 5 18 7 19 1 20 19 21 20 22 25 23
REMARK SMILES IDX 21 24 24 25 22 26 23 27
REMARK H PARENT
ROOT
ATOM      1  C   UNL     1     116.205 156.357 114.308  1.00  0.00     0.338 C 
ATOM      2  C   UNL     1     116.197 155.408 115.480  1.00  0.00     0.134 A 
ATOM      3  N   UNL     1     115.489 155.511 116.629  1.00  0.00    -0.251 NA
ATOM      4  C   UNL     1     115.713 154.496 117.504  1.00  0.00     0.131 A 
ATOM      5  C   UNL     1     116.596 153.447 117.240  1.00  0.00     0.132 A 
ATOM      6  N   UNL     1     117.305 153.350 116.088  1.00  0.00    -0.247 NA
ATOM      7  C   UNL     1     117.067 154.368 115.237  1.00  0.00     0.156 A 
ATOM      8  C   UNL     1     117.667 154.546 113.907  1.00  0.00     0.283 C 
ATOM      9  O   UNL     1     118.469 153.772 113.416  1.00  0.00    -0.267 OA
ATOM     10  N   UNL     1     117.119 155.706 113.376  1.00  0.00    -0.248 N 
ENDROOT
BRANCH   1  11
ATOM     11  O   UNL     1     116.777 157.593 114.725  1.00  0.00    -0.419 OA
BRANCH  11  12
ATOM     12  C   UNL     1     116.057 158.685 114.369  1.00  0.00     0.412 C 
ATOM     13  N   UNL     1     114.698 160.964 117.806  1.00  0.00    -0.303 NA
ATOM     14  C   UNL     1     114.684 159.487 117.799  1.00  0.00     0.106 C 
ATOM     15  C   UNL     1     114.964 161.537 116.469  1.00  0.00     0.106 C 
ATOM     16  C   UNL     1     115.719 158.875 116.840  1.00  0.00     0.138 C 
ATOM     17  C   UNL     1     114.772 160.570 115.286  1.00  0.00     0.138 C 
ATOM     18  N   UNL     1     115.528 159.336 115.464  1.00  0.00    -0.306 N 
ATOM     19  O   UNL     1     115.896 159.058 113.214  1.00  0.00    -0.224 OA
ATOM     20  C   UNL     1     113.467 161.490 118.390  1.00  0.00     0.105 C 
ENDBRANCH  11  12
ENDBRANCH   1  11
BRANCH  10  21
ATOM     21  C   UNL     1     117.326 156.249 112.096  1.00  0.00     0.138 A 
ATOM     22  C   UNL     1     118.400 157.088 111.807  1.00  0.00     0.049 A 
ATOM     23  N   UNL     1     116.428 155.909 111.141  1.00  0.00    -0.237 NA
ATOM     24  C   UNL     1     118.554 157.593 110.512  1.00  0.00     0.026 A 
ATOM     25  C   UNL     1     116.595 156.412 109.892  1.00  0.00     0.134 A 
ATOM     26  C   UNL     1     117.635 157.250 109.535  1.00  0.00     0.059 A 
ATOM     27  Cl  UNL     1     117.784 157.848 107.936  1.00  0.00    -0.083 Cl
ENDBRANCH  10  21
TORSDOF 3
ENDMDL
MODEL 6
REMARK VINA RESULT:    -7.846      4.208      6.493
REMARK INTER + INTRA:          -9.693
REMARK INTER:                  -8.918
REMARK INTRA:                  -0.775
REMARK UNBOUND:                -0.471
REMARK SMILES CN1CCN(C(=O)OC2c3nccnc3C(=O)N2c2ccc(Cl)cn2)CC1
REMARK SMILES IDX 9 1 10 2 11 3 12 4 13 5 14 6 15 7 16 8 17 9 18 10 8 11 6 12
REMARK SMILES IDX 2 13 3 14 27 15 4 16 26 17 5 18 7 19 1 20 19 21 20 22 25 23
REMARK SMILES IDX 21 24 24 25 22 26 23 27
REMARK H PARENT
ROOT
ATOM      1  C   UNL     1     116.208 159.162 112.944  1.00  0.00     0.338 C 
ATOM      2  C   UNL     1     117.102 158.584 111.875  1.00  0.00     0.134 A 
ATOM      3  N   UNL     1     117.353 157.279 111.617  1.00  0.00    -0.251 NA
ATOM      4  C   UNL     1     118.221 157.080 110.592  1.00  0.00     0.131 A 
ATOM      5  C   UNL     1     118.802 158.128 109.875  1.00  0.00     0.132 A 
ATOM      6  N   UNL     1     118.549 159.434 110.139  1.00  0.00    -0.247 NA
ATOM      7  C   UNL     1     117.686 159.606 111.160  1.00  0.00     0.156 A 
ATOM      8  C   UNL     1     117.202 160.893 111.681  1.00  0.00     0.283 C 
ATOM      9  O   UNL     1     117.540 161.974 111.235  1.00  0.00    -0.267 OA
ATOM     10  N   UNL     1     116.315 160.598 112.708  1.00  0.00    -0.248 N 
ENDROOT
BRANCH   1  11
ATOM     11  O   UNL     1     116.769 158.863 114.219  1.00  0.00    -0.419 OA
BRANCH  11  12
ATOM     12  C   UNL     1     115.884 158.342 115.105  1.00  0.00     0.412 C 
ATOM     13  N   UNL     1     116.996 154.349 116.398  1.00  0.00    -0.303 NA
ATOM     14  C   UNL     1     117.145 154.780 114.993  1.00  0.00     0.106 C 
ATOM     15  C   UNL     1     116.212 155.307 117.207  1.00  0.00     0.106 C 
ATOM     16  C   UNL     1     117.305 156.302 114.839  1.00  0.00     0.138 C 
ATOM     17  C   UNL     1     115.373 156.318 116.404  1.00  0.00     0.138 C 
ATOM     18  N   UNL     1     116.178 157.032 115.419  1.00  0.00    -0.306 N 
ATOM     19  O   UNL     1     114.938 158.959 115.578  1.00  0.00    -0.224 OA
ATOM     20  C   UNL     1     116.447 152.998 116.470  1.00  0.00     0.105 C 
ENDBRANCH  11  12
ENDBRANCH   1  11
BRANCH  10  21
ATOM     21  C   UNL     1     115.539 161.495 113.460  1.00  0.00     0.138 A 
ATOM     22  C   UNL     1     114.147 161.438 113.487  1.00  0.00     0.049 A 
ATOM     23  N   UNL     1     116.213 162.427 114.176  1.00  0.00    -0.237 NA
ATOM     24  C   UNL     1     113.430 162.357 114.259  1.00  0.00     0.026 A 
ATOM     25  C   UNL     1     115.498 163.311 114.918  1.00  0.00     0.134 A 
ATOM     26  C   UNL     1     114.118 163.313 114.989  1.00  0.00     0.059 A 
ATOM     27  Cl  UNL     1     113.280 164.461 115.947  1.00  0.00    -0.083 Cl
ENDBRANCH  10  21
TORSDOF 3
ENDMDL
MODEL 7
REMARK VINA RESULT:    -7.786      2.709      5.018
REMARK INTER + INTRA:          -9.623
REMARK INTER:                 -10.656
REMARK INTRA:                   1.033
REMARK UNBOUND:                -0.471
REMARK SMILES CN1CCN(C(=O)OC2c3nccnc3C(=O)N2c2ccc(Cl)cn2)CC1
REMARK SMILES IDX 9 1 10 2 11 3 12 4 13 5 14 6 15 7 16 8 17 9 18 10 8 11 6 12
REMARK SMILES IDX 2 13 3 14 27 15 4 16 26 17 5 18 7 19 1 20 19 21 20 22 25 23
REMARK SMILES IDX 21 24 24 25 22 26 23 27
REMARK H PARENT
ROOT
ATOM      1  C   UNL     1     118.937 158.037 108.804  1.00  0.00     0.338 C 
ATOM      2  C   UNL     1     120.097 158.933 108.445  1.00  0.00     0.134 A 
ATOM      3  N   UNL     1     120.912 159.613 109.284  1.00  0.00    -0.251 NA
ATOM      4  C   UNL     1     121.859 160.351 108.650  1.00  0.00     0.131 A 
ATOM      5  C   UNL     1     121.976 160.403 107.259  1.00  0.00     0.132 A 
ATOM      6  N   UNL     1     121.155 159.722 106.423  1.00  0.00    -0.247 NA
ATOM      7  C   UNL     1     120.223 158.998 107.075  1.00  0.00     0.156 A 
ATOM      8  C   UNL     1     119.197 158.145 106.458  1.00  0.00     0.283 C 
ATOM      9  O   UNL     1     119.073 157.997 105.256  1.00  0.00    -0.267 OA
ATOM     10  N   UNL     1     118.478 157.572 107.499  1.00  0.00    -0.248 N 
ENDROOT
BRANCH   1  11
ATOM     11  O   UNL     1     117.914 158.830 109.395  1.00  0.00    -0.419 OA
BRANCH  11  12
ATOM     12  C   UNL     1     118.093 159.069 110.718  1.00  0.00     0.412 C 
ATOM     13  N   UNL     1     117.286 155.567 113.155  1.00  0.00    -0.303 NA
ATOM     14  C   UNL     1     116.441 155.918 111.996  1.00  0.00     0.106 C 
ATOM     15  C   UNL     1     118.226 156.648 113.522  1.00  0.00     0.106 C 
ATOM     16  C   UNL     1     117.180 156.751 110.935  1.00  0.00     0.138 C 
ATOM     17  C   UNL     1     117.896 158.036 112.941  1.00  0.00     0.138 C 
ATOM     18  N   UNL     1     117.720 157.991 111.493  1.00  0.00    -0.306 N 
ATOM     19  O   UNL     1     118.537 160.114 111.176  1.00  0.00    -0.224 OA
ATOM     20  C   UNL     1     116.463 155.152 114.289  1.00  0.00     0.105 C 
ENDBRANCH  11  12
ENDBRANCH   1  11
BRANCH  10  21
ATOM     21  C   UNL     1     117.444 156.625 107.412  1.00  0.00     0.138 A 
ATOM     22  C   UNL     1     117.523 155.509 106.583  1.00  0.00     0.049 A 
ATOM     23  N   UNL     1     116.356 156.843 108.189  1.00  0.00    -0.237 NA
ATOM     24  C   UNL     1     116.462 154.599 106.543  1.00  0.00     0.026 A 
ATOM     25  C   UNL     1     115.337 155.948 108.134  1.00  0.00     0.134 A 
ATOM     26  C   UNL     1     115.346 154.821 107.334  1.00  0.00     0.059 A 
ATOM     27  Cl  UNL     1     114.022 153.734 107.316  1.00  0.00    -0.083 Cl
ENDBRANCH  10  21
TORSDOF 3
ENDMDL
MODEL 8
REMARK VINA RESULT:    -7.660      3.904      6.402
REMARK INTER + INTRA:          -9.475
REMARK INTER:                  -8.631
REMARK INTRA:                  -0.843
REMARK UNBOUND:                -0.471
REMARK SMILES CN1CCN(C(=O)OC2c3nccnc3C(=O)N2c2ccc(Cl)cn2)CC1
REMARK SMILES IDX 9 1 10 2 11 3 12 4 13 5 14 6 15 7 16 8 17 9 18 10 8 11 6 12
REMARK SMILES IDX 2 13 3 14 27 15 4 16 26 17 5 18 7 19 1 20 19 21 20 22 25 23
REMARK SMILES IDX 21 24 24 25 22 26 23 27
REMARK H PARENT
ROOT
ATOM      1  C   UNL     1     117.975 158.726 111.480  1.00  0.00     0.338 C 
ATOM      2  C   UNL     1     118.653 158.435 110.164  1.00  0.00     0.134 A 
ATOM      3  N   UNL     1     119.326 159.298 109.367  1.00  0.00    -0.251 NA
ATOM      4  C   UNL     1     119.810 158.731 108.232  1.00  0.00     0.131 A 
ATOM      5  C   UNL     1     119.628 157.382 107.919  1.00  0.00     0.132 A 
ATOM      6  N   UNL     1     118.950 156.523 108.720  1.00  0.00    -0.247 NA
ATOM      7  C   UNL     1     118.478 157.108 109.838  1.00  0.00     0.156 A 
ATOM      8  C   UNL     1     117.717 156.448 110.909  1.00  0.00     0.283 C 
ATOM      9  O   UNL     1     117.420 155.267 110.900  1.00  0.00    -0.267 OA
ATOM     10  N   UNL     1     117.462 157.417 111.871  1.00  0.00    -0.248 N 
ENDROOT
BRANCH   1  11
ATOM     11  O   UNL     1     116.875 159.599 111.244  1.00  0.00    -0.419 OA
BRANCH  11  12
ATOM     12  C   UNL     1     117.112 160.892 111.576  1.00  0.00     0.412 C 
ATOM     13  N   UNL     1     114.616 162.240 114.863  1.00  0.00    -0.303 NA
ATOM     14  C   UNL     1     114.086 161.374 113.790  1.00  0.00     0.106 C 
ATOM     15  C   UNL     1     115.956 162.779 114.549  1.00  0.00     0.106 C 
ATOM     16  C   UNL     1     115.169 160.523 113.106  1.00  0.00     0.138 C 
ATOM     17  C   UNL     1     116.370 162.700 113.068  1.00  0.00     0.138 C 
ATOM     18  N   UNL     1     116.235 161.348 112.537  1.00  0.00    -0.306 N 
ATOM     19  O   UNL     1     118.002 161.577 111.087  1.00  0.00    -0.224 OA
ATOM     20  C   UNL     1     113.665 163.298 115.191  1.00  0.00     0.105 C 
ENDBRANCH  11  12
ENDBRANCH   1  11
BRANCH  10  21
ATOM     21  C   UNL     1     116.830 157.250 113.115  1.00  0.00     0.138 A 
ATOM     22  C   UNL     1     115.553 156.706 113.236  1.00  0.00     0.049 A 
ATOM     23  N   UNL     1     117.531 157.639 114.207  1.00  0.00    -0.237 NA
ATOM     24  C   UNL     1     114.979 156.562 114.503  1.00  0.00     0.026 A 
ATOM     25  C   UNL     1     116.955 157.491 115.427  1.00  0.00     0.134 A 
ATOM     26  C   UNL     1     115.693 156.962 115.621  1.00  0.00     0.059 A 
ATOM     27  Cl  UNL     1     115.027 156.806 117.193  1.00  0.00    -0.083 Cl
ENDBRANCH  10  21
TORSDOF 3
ENDMDL
MODEL 9
REMARK VINA RESULT:    -7.168      3.803      7.793
REMARK INTER + INTRA:          -8.896
REMARK INTER:                  -7.914
REMARK INTRA:                  -0.983
REMARK UNBOUND:                -0.471
REMARK SMILES CN1CCN(C(=O)OC2c3nccnc3C(=O)N2c2ccc(Cl)cn2)CC1
REMARK SMILES IDX 9 1 10 2 11 3 12 4 13 5 14 6 15 7 16 8 17 9 18 10 8 11 6 12
REMARK SMILES IDX 2 13 3 14 27 15 4 16 26 17 5 18 7 19 1 20 19 21 20 22 25 23
REMARK SMILES IDX 21 24 24 25 22 26 23 27
REMARK H PARENT
ROOT
ATOM      1  C   UNL     1     116.212 157.913 114.124  1.00  0.00     0.338 C 
ATOM      2  C   UNL     1     116.320 156.510 114.668  1.00  0.00     0.134 A 
ATOM      3  N   UNL     1     117.274 155.588 114.403  1.00  0.00    -0.251 NA
ATOM      4  C   UNL     1     117.082 154.403 115.039  1.00  0.00     0.131 A 
ATOM      5  C   UNL     1     115.998 154.162 115.885  1.00  0.00     0.132 A 
ATOM      6  N   UNL     1     115.043 155.090 116.145  1.00  0.00    -0.247 NA
ATOM      7  C   UNL     1     115.254 156.256 115.502  1.00  0.00     0.156 A 
ATOM      8  C   UNL     1     114.411 157.457 115.583  1.00  0.00     0.283 C 
ATOM      9  O   UNL     1     113.400 157.531 116.257  1.00  0.00    -0.267 OA
ATOM     10  N   UNL     1     115.015 158.421 114.786  1.00  0.00    -0.248 N 
ENDROOT
BRANCH   1  11
ATOM     11  O   UNL     1     115.966 157.842 112.723  1.00  0.00    -0.419 OA
BRANCH  11  12
ATOM     12  C   UNL     1     116.917 158.439 111.962  1.00  0.00     0.412 C 
ATOM     13  N   UNL     1     117.709 156.257 108.293  1.00  0.00    -0.303 NA
ATOM     14  C   UNL     1     117.489 155.562 109.577  1.00  0.00     0.106 C 
ATOM     15  C   UNL     1     117.885 157.717 108.458  1.00  0.00     0.106 C 
ATOM     16  C   UNL     1     116.646 156.378 110.572  1.00  0.00     0.138 C 
ATOM     17  C   UNL     1     118.213 158.184 109.889  1.00  0.00     0.138 C 
ATOM     18  N   UNL     1     117.249 157.680 110.860  1.00  0.00    -0.306 N 
ATOM     19  O   UNL     1     117.422 159.525 112.217  1.00  0.00    -0.224 OA
ATOM     20  C   UNL     1     118.820 155.654 107.562  1.00  0.00     0.105 C 
ENDBRANCH  11  12
ENDBRANCH   1  11
BRANCH  10  21
ATOM     21  C   UNL     1     114.622 159.758 114.605  1.00  0.00     0.138 A 
ATOM     22  C   UNL     1     113.342 160.109 114.185  1.00  0.00     0.049 A 
ATOM     23  N   UNL     1     115.554 160.705 114.871  1.00  0.00    -0.237 NA
ATOM     24  C   UNL     1     113.010 161.458 114.026  1.00  0.00     0.026 A 
ATOM     25  C   UNL     1     115.212 162.008 114.709  1.00  0.00     0.134 A 
ATOM     26  C   UNL     1     113.962 162.427 114.293  1.00  0.00     0.059 A 
ATOM     27  Cl  UNL     1     113.600 164.093 114.111  1.00  0.00    -0.083 Cl
ENDBRANCH  10  21
TORSDOF 3
ENDMDL
