MODEL 1
REMARK VINA RESULT:    -9.503      0.000      0.000
REMARK INTER + INTRA:         -10.997
REMARK INTER:                 -10.614
REMARK INTRA:                  -0.383
REMARK UNBOUND:                -0.383
REMARK SMILES O=C1CN=C(c2ccccc2Cl)c2cc([N+](=O)[O-])ccc2N1
REMARK SMILES IDX 1 1 2 2 3 3 4 4 5 5 13 6 14 7 15 8 19 9 20 10 21 11 22 12
REMARK SMILES IDX 6 14 7 15 11 16 8 17 10 18 9 19 12 20 16 21 17 22 18 23
REMARK H PARENT 22 13
ROOT
ATOM      1  O   UNL     1     117.049 161.731 111.589  1.00  0.00    -0.273 OA
ATOM      2  C   UNL     1     117.414 160.555 111.600  1.00  0.00     0.246 C 
ATOM      3  C   UNL     1     118.569 160.044 110.763  1.00  0.00     0.243 C 
ATOM      4  N   UNL     1     118.102 159.066 109.792  1.00  0.00    -0.274 NA
ATOM      5  C   UNL     1     117.693 157.915 110.197  1.00  0.00     0.076 C 
ATOM      6  C   UNL     1     117.567 157.466 111.619  1.00  0.00     0.031 A 
ATOM      7  C   UNL     1     117.823 156.112 111.911  1.00  0.00     0.098 A 
ATOM      8  C   UNL     1     117.548 155.604 113.186  1.00  0.00     0.270 A 
ATOM      9  C   UNL     1     117.006 156.427 114.176  1.00  0.00     0.088 A 
ATOM     10  C   UNL     1     116.766 157.772 113.890  1.00  0.00     0.034 A 
ATOM     11  C   UNL     1     117.074 158.312 112.630  1.00  0.00     0.051 A 
ATOM     12  N   UNL     1     116.834 159.686 112.485  1.00  0.00    -0.324 N 
ATOM     13  H   UNL     1     116.222 160.154 113.142  1.00  0.00     0.170 HD
ENDROOT
BRANCH   5  14
ATOM     14  C   UNL     1     117.252 156.971 109.137  1.00  0.00     0.019 A 
ATOM     15  C   UNL     1     115.936 156.492 109.194  1.00  0.00     0.012 A 
ATOM     16  C   UNL     1     118.103 156.581 108.098  1.00  0.00     0.050 A 
ATOM     17  C   UNL     1     115.476 155.614 108.214  1.00  0.00     0.001 A 
ATOM     18  C   UNL     1     117.635 155.700 107.121  1.00  0.00     0.021 A 
ATOM     19  C   UNL     1     116.324 155.217 107.179  1.00  0.00     0.002 A 
ATOM     20  Cl  UNL     1     119.745 157.105 108.004  1.00  0.00    -0.084 Cl
ENDBRANCH   5  14
BRANCH   8  21
ATOM     21  N   UNL     1     117.809 154.187 113.479  1.00  0.00     0.062 N 
ATOM     22  O   UNL     1     118.204 153.472 112.548  1.00  0.00    -0.258 OA
ATOM     23  O   UNL     1     117.624 153.798 114.639  1.00  0.00    -0.258 OA
ENDBRANCH   8  21
TORSDOF 2
ENDMDL
MODEL 2
REMARK VINA RESULT:    -9.092      1.655      1.990
REMARK INTER + INTRA:         -10.539
REMARK INTER:                 -11.368
REMARK INTRA:                   0.829
REMARK UNBOUND:                -0.383
REMARK SMILES O=C1CN=C(c2ccccc2Cl)c2cc([N+](=O)[O-])ccc2N1
REMARK SMILES IDX 1 1 2 2 3 3 4 4 5 5 13 6 14 7 15 8 19 9 20 10 21 11 22 12
REMARK SMILES IDX 6 14 7 15 11 16 8 17 10 18 9 19 12 20 16 21 17 22 18 23
REMARK H PARENT 22 13
ROOT
ATOM      1  O   UNL     1     119.964 161.766 109.445  1.00  0.00    -0.273 OA
ATOM      2  C   UNL     1     119.692 160.615 109.787  1.00  0.00     0.246 C 
ATOM      3  C   UNL     1     120.534 159.419 109.395  1.00  0.00     0.243 C 
ATOM      4  N   UNL     1     119.768 158.508 108.558  1.00  0.00    -0.274 NA
ATOM      5  C   UNL     1     118.794 157.841 109.071  1.00  0.00     0.076 C 
ATOM      6  C   UNL     1     118.287 157.947 110.474  1.00  0.00     0.031 A 
ATOM      7  C   UNL     1     117.797 156.780 111.091  1.00  0.00     0.098 A 
ATOM      8  C   UNL     1     117.150 156.857 112.330  1.00  0.00     0.270 A 
ATOM      9  C   UNL     1     116.970 158.091 112.960  1.00  0.00     0.088 A 
ATOM     10  C   UNL     1     117.468 159.247 112.354  1.00  0.00     0.034 A 
ATOM     11  C   UNL     1     118.157 159.185 111.132  1.00  0.00     0.051 A 
ATOM     12  N   UNL     1     118.652 160.407 110.653  1.00  0.00    -0.324 N 
ATOM     13  H   UNL     1     118.277 161.272 111.023  1.00  0.00     0.170 HD
ENDROOT
BRANCH   5  14
ATOM     14  C   UNL     1     118.078 156.921 108.148  1.00  0.00     0.019 A 
ATOM     15  C   UNL     1     116.781 156.523 108.498  1.00  0.00     0.012 A 
ATOM     16  C   UNL     1     118.659 156.476 106.955  1.00  0.00     0.050 A 
ATOM     17  C   UNL     1     116.069 155.670 107.656  1.00  0.00     0.001 A 
ATOM     18  C   UNL     1     117.938 155.621 106.119  1.00  0.00     0.021 A 
ATOM     19  C   UNL     1     116.647 155.218 106.469  1.00  0.00     0.002 A 
ATOM     20  Cl  UNL     1     120.269 156.900 106.498  1.00  0.00    -0.084 Cl
ENDBRANCH   5  14
BRANCH   8  21
ATOM     21  N   UNL     1     116.634 155.635 112.962  1.00  0.00     0.062 N 
ATOM     22  O   UNL     1     117.449 154.746 113.242  1.00  0.00    -0.258 OA
ATOM     23  O   UNL     1     115.417 155.572 113.180  1.00  0.00    -0.258 OA
ENDBRANCH   8  21
TORSDOF 2
ENDMDL
MODEL 3
REMARK VINA RESULT:    -8.989      3.410      6.022
REMARK INTER + INTRA:         -10.423
REMARK INTER:                 -10.641
REMARK INTRA:                   0.217
REMARK UNBOUND:                -0.383
REMARK SMILES O=C1CN=C(c2ccccc2Cl)c2cc([N+](=O)[O-])ccc2N1
REMARK SMILES IDX 1 1 2 2 3 3 4 4 5 5 13 6 14 7 15 8 19 9 20 10 21 11 22 12
REMARK SMILES IDX 6 14 7 15 11 16 8 17 10 18 9 19 12 20 16 21 17 22 18 23
REMARK H PARENT 22 13
ROOT
ATOM      1  O   UNL     1     115.735 155.972 112.356  1.00  0.00    -0.273 OA
ATOM      2  C   UNL     1     116.619 156.205 111.531  1.00  0.00     0.246 C 
ATOM      3  C   UNL     1     118.078 156.355 111.910  1.00  0.00     0.243 C 
ATOM      4  N   UNL     1     118.546 157.701 111.616  1.00  0.00    -0.274 NA
ATOM      5  C   UNL     1     118.672 158.077 110.391  1.00  0.00     0.076 C 
ATOM      6  C   UNL     1     118.311 157.282 109.177  1.00  0.00     0.031 A 
ATOM      7  C   UNL     1     119.102 157.439 108.023  1.00  0.00     0.098 A 
ATOM      8  C   UNL     1     118.705 156.859 106.812  1.00  0.00     0.270 A 
ATOM      9  C   UNL     1     117.516 156.130 106.732  1.00  0.00     0.088 A 
ATOM     10  C   UNL     1     116.738 155.962 107.880  1.00  0.00     0.034 A 
ATOM     11  C   UNL     1     117.141 156.501 109.113  1.00  0.00     0.051 A 
ATOM     12  N   UNL     1     116.300 156.220 110.200  1.00  0.00    -0.324 N 
ATOM     13  H   UNL     1     115.352 155.910 110.025  1.00  0.00     0.170 HD
ENDROOT
BRANCH   5  14
ATOM     14  C   UNL     1     119.173 159.460 110.183  1.00  0.00     0.019 A 
ATOM     15  C   UNL     1     120.344 159.626 109.432  1.00  0.00     0.012 A 
ATOM     16  C   UNL     1     118.497 160.573 110.696  1.00  0.00     0.050 A 
ATOM     17  C   UNL     1     120.844 160.907 109.204  1.00  0.00     0.001 A 
ATOM     18  C   UNL     1     119.005 161.852 110.463  1.00  0.00     0.021 A 
ATOM     19  C   UNL     1     120.177 162.019 109.719  1.00  0.00     0.002 A 
ATOM     20  Cl  UNL     1     117.076 160.424 111.665  1.00  0.00    -0.084 Cl
ENDBRANCH   5  14
BRANCH   8  21
ATOM     21  N   UNL     1     119.532 157.036 105.611  1.00  0.00     0.062 N 
ATOM     22  O   UNL     1     120.744 156.800 105.708  1.00  0.00    -0.258 OA
ATOM     23  O   UNL     1     118.966 157.405 104.574  1.00  0.00    -0.258 OA
ENDBRANCH   8  21
TORSDOF 2
ENDMDL
MODEL 4
REMARK VINA RESULT:    -8.179      3.237      6.408
REMARK INTER + INTRA:          -9.519
REMARK INTER:                  -9.788
REMARK INTRA:                   0.270
REMARK UNBOUND:                -0.383
REMARK SMILES O=C1CN=C(c2ccccc2Cl)c2cc([N+](=O)[O-])ccc2N1
REMARK SMILES IDX 1 1 2 2 3 3 4 4 5 5 13 6 14 7 15 8 19 9 20 10 21 11 22 12
REMARK SMILES IDX 6 14 7 15 11 16 8 17 10 18 9 19 12 20 16 21 17 22 18 23
REMARK H PARENT 22 13
ROOT
ATOM      1  O   UNL     1     116.613 154.501 106.731  1.00  0.00    -0.273 OA
ATOM      2  C   UNL     1     117.394 155.239 107.332  1.00  0.00     0.246 C 
ATOM      3  C   UNL     1     118.012 154.870 108.666  1.00  0.00     0.243 C 
ATOM      4  N   UNL     1     117.581 155.798 109.701  1.00  0.00    -0.274 NA
ATOM      5  C   UNL     1     117.998 157.015 109.677  1.00  0.00     0.076 C 
ATOM      6  C   UNL     1     118.857 157.639 108.623  1.00  0.00     0.031 A 
ATOM      7  C   UNL     1     119.785 158.620 109.020  1.00  0.00     0.098 A 
ATOM      8  C   UNL     1     120.483 159.359 108.058  1.00  0.00     0.270 A 
ATOM      9  C   UNL     1     120.257 159.143 106.696  1.00  0.00     0.088 A 
ATOM     10  C   UNL     1     119.347 158.160 106.302  1.00  0.00     0.034 A 
ATOM     11  C   UNL     1     118.668 157.379 107.252  1.00  0.00     0.051 A 
ATOM     12  N   UNL     1     117.819 156.392 106.729  1.00  0.00    -0.324 N 
ATOM     13  H   UNL     1     117.520 156.457 105.764  1.00  0.00     0.170 HD
ENDROOT
BRANCH   5  14
ATOM     14  C   UNL     1     117.523 157.887 110.782  1.00  0.00     0.019 A 
ATOM     15  C   UNL     1     117.219 159.221 110.478  1.00  0.00     0.012 A 
ATOM     16  C   UNL     1     117.360 157.402 112.084  1.00  0.00     0.050 A 
ATOM     17  C   UNL     1     116.760 160.072 111.483  1.00  0.00     0.001 A 
ATOM     18  C   UNL     1     116.901 158.262 113.084  1.00  0.00     0.021 A 
ATOM     19  C   UNL     1     116.602 159.594 112.784  1.00  0.00     0.002 A 
ATOM     20  Cl  UNL     1     117.762 155.782 112.523  1.00  0.00    -0.084 Cl
ENDBRANCH   5  14
BRANCH   8  21
ATOM     21  N   UNL     1     121.443 160.388 108.482  1.00  0.00     0.062 N 
ATOM     22  O   UNL     1     122.645 160.171 108.276  1.00  0.00    -0.258 OA
ATOM     23  O   UNL     1     120.991 161.411 109.013  1.00  0.00    -0.258 OA
ENDBRANCH   8  21
TORSDOF 2
ENDMDL
MODEL 5
REMARK VINA RESULT:    -7.928      2.982      5.869
REMARK INTER + INTRA:          -9.238
REMARK INTER:                  -9.909
REMARK INTRA:                   0.671
REMARK UNBOUND:                -0.383
REMARK SMILES O=C1CN=C(c2ccccc2Cl)c2cc([N+](=O)[O-])ccc2N1
REMARK SMILES IDX 1 1 2 2 3 3 4 4 5 5 13 6 14 7 15 8 19 9 20 10 21 11 22 12
REMARK SMILES IDX 6 14 7 15 11 16 8 17 10 18 9 19 12 20 16 21 17 22 18 23
REMARK H PARENT 22 13
ROOT
ATOM      1  O   UNL     1     115.432 155.172 113.595  1.00  0.00    -0.273 OA
ATOM      2  C   UNL     1     116.248 155.761 112.886  1.00  0.00     0.246 C 
ATOM      3  C   UNL     1     117.476 156.451 113.444  1.00  0.00     0.243 C 
ATOM      4  N   UNL     1     117.414 157.883 113.193  1.00  0.00    -0.274 NA
ATOM      5  C   UNL     1     117.532 158.323 111.989  1.00  0.00     0.076 C 
ATOM      6  C   UNL     1     117.660 157.495 110.750  1.00  0.00     0.031 A 
ATOM      7  C   UNL     1     118.462 157.990 109.703  1.00  0.00     0.098 A 
ATOM      8  C   UNL     1     118.473 157.345 108.460  1.00  0.00     0.270 A 
ATOM      9  C   UNL     1     117.681 156.216 108.240  1.00  0.00     0.088 A 
ATOM     10  C   UNL     1     116.897 155.717 109.283  1.00  0.00     0.034 A 
ATOM     11  C   UNL     1     116.904 156.325 110.549  1.00  0.00     0.051 A 
ATOM     12  N   UNL     1     116.114 155.699 111.525  1.00  0.00    -0.324 N 
ATOM     13  H   UNL     1     115.391 155.052 111.236  1.00  0.00     0.170 HD
ENDROOT
BRANCH   5  14
ATOM     14  C   UNL     1     117.475 159.799 111.827  1.00  0.00     0.019 A 
ATOM     15  C   UNL     1     118.420 160.402 110.986  1.00  0.00     0.012 A 
ATOM     16  C   UNL     1     116.503 160.573 112.470  1.00  0.00     0.050 A 
ATOM     17  C   UNL     1     118.397 161.783 110.797  1.00  0.00     0.001 A 
ATOM     18  C   UNL     1     116.488 161.956 112.275  1.00  0.00     0.021 A 
ATOM     19  C   UNL     1     117.434 162.559 111.441  1.00  0.00     0.002 A 
ATOM     20  Cl  UNL     1     115.345 159.889 113.551  1.00  0.00    -0.084 Cl
ENDBRANCH   5  14
BRANCH   8  21
ATOM     21  N   UNL     1     119.306 157.875 107.371  1.00  0.00     0.062 N 
ATOM     22  O   UNL     1     120.524 157.656 107.421  1.00  0.00    -0.258 OA
ATOM     23  O   UNL     1     118.738 158.501 106.467  1.00  0.00    -0.258 OA
ENDBRANCH   8  21
TORSDOF 2
ENDMDL
MODEL 6
REMARK VINA RESULT:    -7.443      1.511      2.019
REMARK INTER + INTRA:          -8.696
REMARK INTER:                  -8.241
REMARK INTRA:                  -0.455
REMARK UNBOUND:                -0.383
REMARK SMILES O=C1CN=C(c2ccccc2Cl)c2cc([N+](=O)[O-])ccc2N1
REMARK SMILES IDX 1 1 2 2 3 3 4 4 5 5 13 6 14 7 15 8 19 9 20 10 21 11 22 12
REMARK SMILES IDX 6 14 7 15 11 16 8 17 10 18 9 19 12 20 16 21 17 22 18 23
REMARK H PARENT 22 13
ROOT
ATOM      1  O   UNL     1     114.556 161.197 113.269  1.00  0.00    -0.273 OA
ATOM      2  C   UNL     1     115.331 160.240 113.262  1.00  0.00     0.246 C 
ATOM      3  C   UNL     1     116.773 160.353 112.811  1.00  0.00     0.243 C 
ATOM      4  N   UNL     1     117.003 159.534 111.630  1.00  0.00    -0.274 NA
ATOM      5  C   UNL     1     116.980 158.251 111.732  1.00  0.00     0.076 C 
ATOM      6  C   UNL     1     116.661 157.464 112.963  1.00  0.00     0.031 A 
ATOM      7  C   UNL     1     117.332 156.242 113.161  1.00  0.00     0.098 A 
ATOM      8  C   UNL     1     116.944 155.385 114.197  1.00  0.00     0.270 A 
ATOM      9  C   UNL     1     115.879 155.724 115.036  1.00  0.00     0.088 A 
ATOM     10  C   UNL     1     115.222 156.942 114.848  1.00  0.00     0.034 A 
ATOM     11  C   UNL     1     115.624 157.834 113.841  1.00  0.00     0.051 A 
ATOM     12  N   UNL     1     114.918 159.045 113.788  1.00  0.00    -0.324 N 
ATOM     13  H   UNL     1     114.020 159.115 114.250  1.00  0.00     0.170 HD
ENDROOT
BRANCH   5  14
ATOM     14  C   UNL     1     117.244 157.494 110.481  1.00  0.00     0.019 A 
ATOM     15  C   UNL     1     116.231 156.655 109.998  1.00  0.00     0.012 A 
ATOM     16  C   UNL     1     118.451 157.621 109.784  1.00  0.00     0.050 A 
ATOM     17  C   UNL     1     116.431 155.935 108.821  1.00  0.00     0.001 A 
ATOM     18  C   UNL     1     118.643 156.895 108.607  1.00  0.00     0.021 A 
ATOM     19  C   UNL     1     117.636 156.053 108.128  1.00  0.00     0.002 A 
ATOM     20  Cl  UNL     1     119.749 158.604 110.357  1.00  0.00    -0.084 Cl
ENDBRANCH   5  14
BRANCH   8  21
ATOM     21  N   UNL     1     117.644 154.108 114.390  1.00  0.00     0.062 N 
ATOM     22  O   UNL     1     117.490 153.526 115.473  1.00  0.00    -0.258 OA
ATOM     23  O   UNL     1     118.341 153.689 113.456  1.00  0.00    -0.258 OA
ENDBRANCH   8  21
TORSDOF 2
ENDMDL
MODEL 7
REMARK VINA RESULT:    -6.961      4.174      6.411
REMARK INTER + INTRA:          -8.159
REMARK INTER:                  -7.472
REMARK INTRA:                  -0.687
REMARK UNBOUND:                -0.383
REMARK SMILES O=C1CN=C(c2ccccc2Cl)c2cc([N+](=O)[O-])ccc2N1
REMARK SMILES IDX 1 1 2 2 3 3 4 4 5 5 13 6 14 7 15 8 19 9 20 10 21 11 22 12
REMARK SMILES IDX 6 14 7 15 11 16 8 17 10 18 9 19 12 20 16 21 17 22 18 23
REMARK H PARENT 22 13
ROOT
ATOM      1  O   UNL     1     116.619 156.625 119.104  1.00  0.00    -0.273 OA
ATOM      2  C   UNL     1     116.775 156.999 117.941  1.00  0.00     0.246 C 
ATOM      3  C   UNL     1     117.207 158.405 117.579  1.00  0.00     0.243 C 
ATOM      4  N   UNL     1     116.163 159.079 116.821  1.00  0.00    -0.274 NA
ATOM      5  C   UNL     1     115.899 158.693 115.622  1.00  0.00     0.076 C 
ATOM      6  C   UNL     1     116.517 157.534 114.906  1.00  0.00     0.031 A 
ATOM      7  C   UNL     1     116.715 157.644 113.516  1.00  0.00     0.098 A 
ATOM      8  C   UNL     1     117.121 156.529 112.773  1.00  0.00     0.270 A 
ATOM      9  C   UNL     1     117.321 155.296 113.397  1.00  0.00     0.088 A 
ATOM     10  C   UNL     1     117.138 155.190 114.778  1.00  0.00     0.034 A 
ATOM     11  C   UNL     1     116.772 156.307 115.547  1.00  0.00     0.051 A 
ATOM     12  N   UNL     1     116.669 156.083 116.928  1.00  0.00    -0.324 N 
ATOM     13  H   UNL     1     116.583 155.134 117.271  1.00  0.00     0.170 HD
ENDROOT
BRANCH   5  14
ATOM     14  C   UNL     1     114.833 159.449 114.915  1.00  0.00     0.019 A 
ATOM     15  C   UNL     1     115.188 160.653 114.291  1.00  0.00     0.012 A 
ATOM     16  C   UNL     1     113.517 158.978 114.848  1.00  0.00     0.050 A 
ATOM     17  C   UNL     1     114.222 161.389 113.608  1.00  0.00     0.001 A 
ATOM     18  C   UNL     1     112.556 159.723 114.162  1.00  0.00     0.021 A 
ATOM     19  C   UNL     1     112.907 160.926 113.544  1.00  0.00     0.002 A 
ATOM     20  Cl  UNL     1     113.015 157.527 115.636  1.00  0.00    -0.084 Cl
ENDBRANCH   5  14
BRANCH   8  21
ATOM     21  N   UNL     1     117.315 156.651 111.321  1.00  0.00     0.062 N 
ATOM     22  O   UNL     1     118.387 157.128 110.924  1.00  0.00    -0.258 OA
ATOM     23  O   UNL     1     116.399 156.263 110.585  1.00  0.00    -0.258 OA
ENDBRANCH   8  21
TORSDOF 2
ENDMDL
MODEL 8
REMARK VINA RESULT:    -6.910      3.329      4.714
REMARK INTER + INTRA:          -8.102
REMARK INTER:                  -9.001
REMARK INTRA:                   0.899
REMARK UNBOUND:                -0.383
REMARK SMILES O=C1CN=C(c2ccccc2Cl)c2cc([N+](=O)[O-])ccc2N1
REMARK SMILES IDX 1 1 2 2 3 3 4 4 5 5 13 6 14 7 15 8 19 9 20 10 21 11 22 12
REMARK SMILES IDX 6 14 7 15 11 16 8 17 10 18 9 19 12 20 16 21 17 22 18 23
REMARK H PARENT 22 13
ROOT
ATOM      1  O   UNL     1     122.195 163.745 108.293  1.00  0.00    -0.273 OA
ATOM      2  C   UNL     1     121.729 162.713 108.777  1.00  0.00     0.246 C 
ATOM      3  C   UNL     1     122.552 161.458 108.984  1.00  0.00     0.243 C 
ATOM      4  N   UNL     1     122.033 160.369 108.169  1.00  0.00    -0.274 NA
ATOM      5  C   UNL     1     120.893 159.847 108.458  1.00  0.00     0.076 C 
ATOM      6  C   UNL     1     119.959 160.294 109.538  1.00  0.00     0.031 A 
ATOM      7  C   UNL     1     119.198 159.313 110.202  1.00  0.00     0.098 A 
ATOM      8  C   UNL     1     118.185 159.691 111.091  1.00  0.00     0.270 A 
ATOM      9  C   UNL     1     117.910 161.042 111.319  1.00  0.00     0.088 A 
ATOM     10  C   UNL     1     118.674 162.014 110.671  1.00  0.00     0.034 A 
ATOM     11  C   UNL     1     119.722 161.655 109.807  1.00  0.00     0.051 A 
ATOM     12  N   UNL     1     120.447 162.723 109.259  1.00  0.00    -0.324 N 
ATOM     13  H   UNL     1     120.044 163.652 109.268  1.00  0.00     0.170 HD
ENDROOT
BRANCH   5  14
ATOM     14  C   UNL     1     120.450 158.729 107.584  1.00  0.00     0.019 A 
ATOM     15  C   UNL     1     119.739 157.677 108.179  1.00  0.00     0.012 A 
ATOM     16  C   UNL     1     120.708 158.722 106.209  1.00  0.00     0.050 A 
ATOM     17  C   UNL     1     119.295 156.613 107.395  1.00  0.00     0.001 A 
ATOM     18  C   UNL     1     120.260 157.651 105.433  1.00  0.00     0.021 A 
ATOM     19  C   UNL     1     119.556 156.598 106.025  1.00  0.00     0.002 A 
ATOM     20  Cl  UNL     1     121.617 159.968 105.434  1.00  0.00    -0.084 Cl
ENDBRANCH   5  14
BRANCH   8  21
ATOM     21  N   UNL     1     117.389 158.661 111.772  1.00  0.00     0.062 N 
ATOM     22  O   UNL     1     117.570 157.482 111.439  1.00  0.00    -0.258 OA
ATOM     23  O   UNL     1     116.590 159.034 112.641  1.00  0.00    -0.258 OA
ENDBRANCH   8  21
TORSDOF 2
ENDMDL
MODEL 9
REMARK VINA RESULT:    -6.887      3.986      7.327
REMARK INTER + INTRA:          -8.075
REMARK INTER:                  -7.426
REMARK INTRA:                  -0.649
REMARK UNBOUND:                -0.383
REMARK SMILES O=C1CN=C(c2ccccc2Cl)c2cc([N+](=O)[O-])ccc2N1
REMARK SMILES IDX 1 1 2 2 3 3 4 4 5 5 13 6 14 7 15 8 19 9 20 10 21 11 22 12
REMARK SMILES IDX 6 14 7 15 11 16 8 17 10 18 9 19 12 20 16 21 17 22 18 23
REMARK H PARENT 22 13
ROOT
ATOM      1  O   UNL     1     115.923 156.095 114.650  1.00  0.00    -0.273 OA
ATOM      2  C   UNL     1     116.148 157.279 114.397  1.00  0.00     0.246 C 
ATOM      3  C   UNL     1     116.167 158.358 115.461  1.00  0.00     0.243 C 
ATOM      4  N   UNL     1     115.108 159.327 115.222  1.00  0.00    -0.274 NA
ATOM      5  C   UNL     1     115.186 160.117 114.209  1.00  0.00     0.076 C 
ATOM      6  C   UNL     1     116.250 160.110 113.158  1.00  0.00     0.031 A 
ATOM      7  C   UNL     1     116.635 161.343 112.597  1.00  0.00     0.098 A 
ATOM      8  C   UNL     1     117.492 161.376 111.491  1.00  0.00     0.270 A 
ATOM      9  C   UNL     1     117.963 160.190 110.923  1.00  0.00     0.088 A 
ATOM     10  C   UNL     1     117.592 158.967 111.487  1.00  0.00     0.034 A 
ATOM     11  C   UNL     1     116.768 158.915 112.623  1.00  0.00     0.051 A 
ATOM     12  N   UNL     1     116.510 157.630 113.124  1.00  0.00    -0.324 N 
ATOM     13  H   UNL     1     116.671 156.826 112.531  1.00  0.00     0.170 HD
ENDROOT
BRANCH   5  14
ATOM     14  C   UNL     1     114.071 161.087 114.053  1.00  0.00     0.019 A 
ATOM     15  C   UNL     1     112.966 160.694 113.286  1.00  0.00     0.012 A 
ATOM     16  C   UNL     1     114.099 162.346 114.662  1.00  0.00     0.050 A 
ATOM     17  C   UNL     1     111.892 161.568 113.122  1.00  0.00     0.001 A 
ATOM     18  C   UNL     1     113.020 163.215 114.491  1.00  0.00     0.021 A 
ATOM     19  C   UNL     1     111.920 162.828 113.722  1.00  0.00     0.002 A 
ATOM     20  Cl  UNL     1     115.454 162.897 115.579  1.00  0.00    -0.084 Cl
ENDBRANCH   5  14
BRANCH   8  21
ATOM     21  N   UNL     1     117.881 162.667 110.906  1.00  0.00     0.062 N 
ATOM     22  O   UNL     1     117.272 163.677 111.288  1.00  0.00    -0.258 OA
ATOM     23  O   UNL     1     118.796 162.668 110.073  1.00  0.00    -0.258 OA
ENDBRANCH   8  21
TORSDOF 2
ENDMDL
