MODEL 1
REMARK VINA RESULT:    -9.787      0.000      0.000
REMARK INTER + INTRA:         -11.017
REMARK INTER:                 -10.646
REMARK INTRA:                  -0.372
REMARK UNBOUND:                -0.372
REMARK SMILES CN1C(=O)C(O)N=C(c2ccccc2)c2cc(Cl)ccc21
REMARK SMILES IDX 1 1 2 2 3 3 4 4 5 5 7 6 8 7 15 8 16 9 17 10 18 11 19 12
REMARK SMILES IDX 20 13 21 14 6 15 9 17 10 18 14 19 11 20 13 21 12 22
REMARK H PARENT 6 16
ROOT
ATOM      1  C   UNL     1     116.326 160.631 112.485  1.00  0.00     0.153 C 
ATOM      2  N   UNL     1     117.298 159.791 111.795  1.00  0.00    -0.311 N 
ATOM      3  C   UNL     1     118.145 160.423 110.875  1.00  0.00     0.278 C 
ATOM      4  O   UNL     1     118.004 161.608 110.551  1.00  0.00    -0.269 OA
ATOM      5  C   UNL     1     119.324 159.580 110.310  1.00  0.00     0.323 C 
ATOM      6  N   UNL     1     118.752 158.661 109.339  1.00  0.00    -0.243 NA
ATOM      7  C   UNL     1     118.033 157.685 109.781  1.00  0.00     0.078 C 
ATOM      8  C   UNL     1     117.794 157.406 111.230  1.00  0.00     0.026 A 
ATOM      9  C   UNL     1     117.936 156.070 111.650  1.00  0.00     0.033 A 
ATOM     10  C   UNL     1     117.622 155.711 112.955  1.00  0.00     0.041 A 
ATOM     11  Cl  UNL     1     117.782 154.075 113.458  1.00  0.00    -0.084 Cl
ATOM     12  C   UNL     1     117.169 156.669 113.852  1.00  0.00     0.023 A 
ATOM     13  C   UNL     1     117.050 158.002 113.445  1.00  0.00     0.028 A 
ATOM     14  C   UNL     1     117.386 158.406 112.138  1.00  0.00     0.053 A 
ENDROOT
BRANCH   5  15
ATOM     15  O   UNL     1     120.305 160.428 109.733  1.00  0.00    -0.364 OA
ATOM     16  H   UNL     1     120.246 161.240 110.268  1.00  0.00     0.213 HD
ENDBRANCH   5  15
BRANCH   7  17
ATOM     17  C   UNL     1     117.408 156.782 108.762  1.00  0.00     0.000 A 
ATOM     18  C   UNL     1     118.170 156.371 107.661  1.00  0.00     0.010 A 
ATOM     19  C   UNL     1     116.074 156.369 108.877  1.00  0.00     0.010 A 
ATOM     20  C   UNL     1     117.612 155.530 106.698  1.00  0.00     0.001 A 
ATOM     21  C   UNL     1     115.520 155.526 107.910  1.00  0.00     0.001 A 
ATOM     22  C   UNL     1     116.289 155.106 106.825  1.00  0.00     0.000 A 
ENDBRANCH   7  17
TORSDOF 2
ENDMDL
MODEL 2
REMARK VINA RESULT:    -8.416      3.263      6.130
REMARK INTER + INTRA:          -9.526
REMARK INTER:                  -9.778
REMARK INTRA:                   0.252
REMARK UNBOUND:                -0.372
REMARK SMILES CN1C(=O)C(O)N=C(c2ccccc2)c2cc(Cl)ccc21
REMARK SMILES IDX 1 1 2 2 3 3 4 4 5 5 7 6 8 7 15 8 16 9 17 10 18 11 19 12
REMARK SMILES IDX 20 13 21 14 6 15 9 17 10 18 14 19 11 20 13 21 12 22
REMARK H PARENT 6 16
ROOT
ATOM      1  C   UNL     1     117.340 156.572 107.110  1.00  0.00     0.153 C 
ATOM      2  N   UNL     1     117.914 156.964 108.392  1.00  0.00    -0.311 N 
ATOM      3  C   UNL     1     117.385 156.354 109.537  1.00  0.00     0.278 C 
ATOM      4  O   UNL     1     116.392 155.619 109.497  1.00  0.00    -0.269 OA
ATOM      5  C   UNL     1     118.141 156.595 110.875  1.00  0.00     0.323 C 
ATOM      6  N   UNL     1     117.820 157.949 111.298  1.00  0.00    -0.243 NA
ATOM      7  C   UNL     1     118.329 158.928 110.628  1.00  0.00     0.078 C 
ATOM      8  C   UNL     1     119.271 158.760 109.480  1.00  0.00     0.026 A 
ATOM      9  C   UNL     1     120.416 159.579 109.474  1.00  0.00     0.033 A 
ATOM     10  C   UNL     1     121.282 159.563 108.387  1.00  0.00     0.041 A 
ATOM     11  Cl  UNL     1     122.670 160.576 108.380  1.00  0.00    -0.084 Cl
ATOM     12  C   UNL     1     121.021 158.738 107.301  1.00  0.00     0.023 A 
ATOM     13  C   UNL     1     119.898 157.905 107.314  1.00  0.00     0.028 A 
ATOM     14  C   UNL     1     119.015 157.875 108.411  1.00  0.00     0.053 A 
ENDROOT
BRANCH   5  15
ATOM     15  O   UNL     1     117.758 155.628 111.841  1.00  0.00    -0.364 OA
ATOM     16  H   UNL     1     118.258 155.889 112.635  1.00  0.00     0.213 HD
ENDBRANCH   5  15
BRANCH   7  17
ATOM     17  C   UNL     1     117.943 160.314 111.045  1.00  0.00     0.000 A 
ATOM     18  C   UNL     1     116.897 160.480 111.961  1.00  0.00     0.010 A 
ATOM     19  C   UNL     1     118.588 161.439 110.515  1.00  0.00     0.010 A 
ATOM     20  C   UNL     1     116.517 161.761 112.365  1.00  0.00     0.001 A 
ATOM     21  C   UNL     1     118.204 162.718 110.923  1.00  0.00     0.001 A 
ATOM     22  C   UNL     1     117.173 162.878 111.849  1.00  0.00     0.000 A 
ENDBRANCH   7  17
TORSDOF 2
ENDMDL
MODEL 3
REMARK VINA RESULT:    -8.003      1.860      4.832
REMARK INTER + INTRA:          -9.076
REMARK INTER:                  -8.896
REMARK INTRA:                  -0.180
REMARK UNBOUND:                -0.372
REMARK SMILES CN1C(=O)C(O)N=C(c2ccccc2)c2cc(Cl)ccc21
REMARK SMILES IDX 1 1 2 2 3 3 4 4 5 5 7 6 8 7 15 8 16 9 17 10 18 11 19 12
REMARK SMILES IDX 20 13 21 14 6 15 9 17 10 18 14 19 11 20 13 21 12 22
REMARK H PARENT 6 16
ROOT
ATOM      1  C   UNL     1     120.650 157.512 107.588  1.00  0.00     0.153 C 
ATOM      2  N   UNL     1     119.597 157.941 108.501  1.00  0.00    -0.311 N 
ATOM      3  C   UNL     1     119.861 159.069 109.289  1.00  0.00     0.278 C 
ATOM      4  O   UNL     1     120.972 159.609 109.322  1.00  0.00    -0.269 OA
ATOM      5  C   UNL     1     118.666 159.661 110.091  1.00  0.00     0.323 C 
ATOM      6  N   UNL     1     118.440 158.773 111.219  1.00  0.00    -0.243 NA
ATOM      7  C   UNL     1     117.934 157.610 110.981  1.00  0.00     0.078 C 
ATOM      8  C   UNL     1     117.514 157.137 109.627  1.00  0.00     0.026 A 
ATOM      9  C   UNL     1     116.258 156.509 109.535  1.00  0.00     0.033 A 
ATOM     10  C   UNL     1     115.845 155.943 108.335  1.00  0.00     0.041 A 
ATOM     11  Cl  UNL     1     114.316 155.164 108.234  1.00  0.00    -0.084 Cl
ATOM     12  C   UNL     1     116.671 155.995 107.220  1.00  0.00     0.023 A 
ATOM     13  C   UNL     1     117.908 156.640 107.300  1.00  0.00     0.028 A 
ATOM     14  C   UNL     1     118.346 157.249 108.492  1.00  0.00     0.053 A 
ENDROOT
BRANCH   5  15
ATOM     15  O   UNL     1     118.957 160.987 110.503  1.00  0.00    -0.364 OA
ATOM     16  H   UNL     1     118.308 161.525 110.013  1.00  0.00     0.213 HD
ENDBRANCH   5  15
BRANCH   7  17
ATOM     17  C   UNL     1     117.760 156.689 112.150  1.00  0.00     0.000 A 
ATOM     18  C   UNL     1     117.605 157.238 113.429  1.00  0.00     0.010 A 
ATOM     19  C   UNL     1     117.778 155.297 111.989  1.00  0.00     0.010 A 
ATOM     20  C   UNL     1     117.441 156.402 114.534  1.00  0.00     0.001 A 
ATOM     21  C   UNL     1     117.613 154.465 113.098  1.00  0.00     0.001 A 
ATOM     22  C   UNL     1     117.442 155.017 114.368  1.00  0.00     0.000 A 
ENDBRANCH   7  17
TORSDOF 2
ENDMDL
MODEL 4
REMARK VINA RESULT:    -7.405      3.056      5.619
REMARK INTER + INTRA:          -8.426
REMARK INTER:                  -8.568
REMARK INTRA:                   0.142
REMARK UNBOUND:                -0.372
REMARK SMILES CN1C(=O)C(O)N=C(c2ccccc2)c2cc(Cl)ccc21
REMARK SMILES IDX 1 1 2 2 3 3 4 4 5 5 7 6 8 7 15 8 16 9 17 10 18 11 19 12
REMARK SMILES IDX 20 13 21 14 6 15 9 17 10 18 14 19 11 20 13 21 12 22
REMARK H PARENT 6 16
ROOT
ATOM      1  C   UNL     1     115.199 155.654 109.902  1.00  0.00     0.153 C 
ATOM      2  N   UNL     1     116.439 156.197 110.443  1.00  0.00    -0.311 N 
ATOM      3  C   UNL     1     116.560 156.235 111.839  1.00  0.00     0.278 C 
ATOM      4  O   UNL     1     115.622 155.952 112.592  1.00  0.00    -0.269 OA
ATOM      5  C   UNL     1     117.959 156.598 112.414  1.00  0.00     0.323 C 
ATOM      6  N   UNL     1     118.124 158.032 112.237  1.00  0.00    -0.243 NA
ATOM      7  C   UNL     1     118.305 158.477 111.039  1.00  0.00     0.078 C 
ATOM      8  C   UNL     1     118.410 157.608 109.827  1.00  0.00     0.026 A 
ATOM      9  C   UNL     1     119.458 157.892 108.933  1.00  0.00     0.033 A 
ATOM     10  C   UNL     1     119.557 157.204 107.729  1.00  0.00     0.041 A 
ATOM     11  Cl  UNL     1     120.830 157.567 106.634  1.00  0.00    -0.084 Cl
ATOM     12  C   UNL     1     118.620 156.231 107.405  1.00  0.00     0.023 A 
ATOM     13  C   UNL     1     117.592 155.928 108.302  1.00  0.00     0.028 A 
ATOM     14  C   UNL     1     117.479 156.586 109.542  1.00  0.00     0.053 A 
ENDROOT
BRANCH   5  15
ATOM     15  O   UNL     1     118.049 156.212 113.776  1.00  0.00    -0.364 OA
ATOM     16  H   UNL     1     118.129 155.242 113.733  1.00  0.00     0.213 HD
ENDBRANCH   5  15
BRANCH   7  17
ATOM     17  C   UNL     1     118.417 159.961 110.872  1.00  0.00     0.000 A 
ATOM     18  C   UNL     1     117.415 160.781 111.403  1.00  0.00     0.010 A 
ATOM     19  C   UNL     1     119.487 160.535 110.172  1.00  0.00     0.010 A 
ATOM     20  C   UNL     1     117.496 162.167 111.261  1.00  0.00     0.001 A 
ATOM     21  C   UNL     1     119.564 161.922 110.033  1.00  0.00     0.001 A 
ATOM     22  C   UNL     1     118.571 162.737 110.579  1.00  0.00     0.000 A 
ENDBRANCH   7  17
TORSDOF 2
ENDMDL
MODEL 5
REMARK VINA RESULT:    -7.207      3.335      4.898
REMARK INTER + INTRA:          -8.211
REMARK INTER:                  -8.289
REMARK INTRA:                   0.078
REMARK UNBOUND:                -0.372
REMARK SMILES CN1C(=O)C(O)N=C(c2ccccc2)c2cc(Cl)ccc21
REMARK SMILES IDX 1 1 2 2 3 3 4 4 5 5 7 6 8 7 15 8 16 9 17 10 18 11 19 12
REMARK SMILES IDX 20 13 21 14 6 15 9 17 10 18 14 19 11 20 13 21 12 22
REMARK H PARENT 6 16
ROOT
ATOM      1  C   UNL     1     117.863 155.757 112.943  1.00  0.00     0.153 C 
ATOM      2  N   UNL     1     117.643 156.427 111.666  1.00  0.00    -0.311 N 
ATOM      3  C   UNL     1     117.475 155.609 110.540  1.00  0.00     0.278 C 
ATOM      4  O   UNL     1     117.635 154.384 110.583  1.00  0.00    -0.269 OA
ATOM      5  C   UNL     1     117.017 156.306 109.227  1.00  0.00     0.323 C 
ATOM      6  N   UNL     1     118.178 157.005 108.699  1.00  0.00    -0.243 NA
ATOM      7  C   UNL     1     118.586 158.058 109.325  1.00  0.00     0.078 C 
ATOM      8  C   UNL     1     117.910 158.636 110.526  1.00  0.00     0.026 A 
ATOM      9  C   UNL     1     117.708 160.029 110.530  1.00  0.00     0.033 A 
ATOM     10  C   UNL     1     117.189 160.657 111.657  1.00  0.00     0.041 A 
ATOM     11  Cl  UNL     1     116.961 162.360 111.662  1.00  0.00    -0.084 Cl
ATOM     12  C   UNL     1     116.865 159.911 112.782  1.00  0.00     0.023 A 
ATOM     13  C   UNL     1     117.039 158.524 112.772  1.00  0.00     0.028 A 
ATOM     14  C   UNL     1     117.537 157.852 111.639  1.00  0.00     0.053 A 
ENDROOT
BRANCH   5  15
ATOM     15  O   UNL     1     116.507 155.348 108.312  1.00  0.00    -0.364 OA
ATOM     16  H   UNL     1     116.529 155.817 107.458  1.00  0.00     0.213 HD
ENDBRANCH   5  15
BRANCH   7  17
ATOM     17  C   UNL     1     119.815 158.732 108.797  1.00  0.00     0.000 A 
ATOM     18  C   UNL     1     120.372 158.282 107.594  1.00  0.00     0.010 A 
ATOM     19  C   UNL     1     120.428 159.779 109.498  1.00  0.00     0.010 A 
ATOM     20  C   UNL     1     121.517 158.893 107.081  1.00  0.00     0.001 A 
ATOM     21  C   UNL     1     121.573 160.387 108.980  1.00  0.00     0.001 A 
ATOM     22  C   UNL     1     122.114 159.947 107.772  1.00  0.00     0.000 A 
ENDBRANCH   7  17
TORSDOF 2
ENDMDL
MODEL 6
REMARK VINA RESULT:    -7.168      4.330      5.771
REMARK INTER + INTRA:          -8.168
REMARK INTER:                  -8.468
REMARK INTRA:                   0.301
REMARK UNBOUND:                -0.372
REMARK SMILES CN1C(=O)C(O)N=C(c2ccccc2)c2cc(Cl)ccc21
REMARK SMILES IDX 1 1 2 2 3 3 4 4 5 5 7 6 8 7 15 8 16 9 17 10 18 11 19 12
REMARK SMILES IDX 20 13 21 14 6 15 9 17 10 18 14 19 11 20 13 21 12 22
REMARK H PARENT 6 16
ROOT
ATOM      1  C   UNL     1     116.697 157.223 117.266  1.00  0.00     0.153 C 
ATOM      2  N   UNL     1     116.187 157.302 115.902  1.00  0.00    -0.311 N 
ATOM      3  C   UNL     1     116.041 156.094 115.207  1.00  0.00     0.278 C 
ATOM      4  O   UNL     1     116.444 155.017 115.661  1.00  0.00    -0.269 OA
ATOM      5  C   UNL     1     115.289 156.151 113.847  1.00  0.00     0.323 C 
ATOM      6  N   UNL     1     116.210 156.735 112.885  1.00  0.00    -0.243 NA
ATOM      7  C   UNL     1     116.478 157.993 112.992  1.00  0.00     0.078 C 
ATOM      8  C   UNL     1     115.862 158.901 114.007  1.00  0.00     0.026 A 
ATOM      9  C   UNL     1     115.391 160.143 113.543  1.00  0.00     0.033 A 
ATOM     10  C   UNL     1     114.907 161.087 114.442  1.00  0.00     0.041 A 
ATOM     11  Cl  UNL     1     114.349 162.609 113.871  1.00  0.00    -0.084 Cl
ATOM     12  C   UNL     1     114.885 160.807 115.802  1.00  0.00     0.023 A 
ATOM     13  C   UNL     1     115.327 159.564 116.263  1.00  0.00     0.028 A 
ATOM     14  C   UNL     1     115.798 158.574 115.379  1.00  0.00     0.053 A 
ENDROOT
BRANCH   5  15
ATOM     15  O   UNL     1     114.864 154.853 113.462  1.00  0.00    -0.364 OA
ATOM     16  H   UNL     1     115.394 154.668 112.664  1.00  0.00     0.213 HD
ENDBRANCH   5  15
BRANCH   7  17
ATOM     17  C   UNL     1     117.471 158.564 112.027  1.00  0.00     0.000 A 
ATOM     18  C   UNL     1     118.396 157.706 111.418  1.00  0.00     0.010 A 
ATOM     19  C   UNL     1     117.509 159.936 111.747  1.00  0.00     0.010 A 
ATOM     20  C   UNL     1     119.331 158.212 110.515  1.00  0.00     0.001 A 
ATOM     21  C   UNL     1     118.447 160.437 110.842  1.00  0.00     0.001 A 
ATOM     22  C   UNL     1     119.354 159.576 110.225  1.00  0.00     0.000 A 
ENDBRANCH   7  17
TORSDOF 2
ENDMDL
MODEL 7
REMARK VINA RESULT:    -7.002      4.767      6.911
REMARK INTER + INTRA:          -7.987
REMARK INTER:                  -7.562
REMARK INTRA:                  -0.426
REMARK UNBOUND:                -0.372
REMARK SMILES CN1C(=O)C(O)N=C(c2ccccc2)c2cc(Cl)ccc21
REMARK SMILES IDX 1 1 2 2 3 3 4 4 5 5 7 6 8 7 15 8 16 9 17 10 18 11 19 12
REMARK SMILES IDX 20 13 21 14 6 15 9 17 10 18 14 19 11 20 13 21 12 22
REMARK H PARENT 6 16
ROOT
ATOM      1  C   UNL     1     116.242 154.839 117.556  1.00  0.00     0.153 C 
ATOM      2  N   UNL     1     116.572 156.150 117.010  1.00  0.00    -0.311 N 
ATOM      3  C   UNL     1     116.790 157.185 117.929  1.00  0.00     0.278 C 
ATOM      4  O   UNL     1     116.588 157.047 119.140  1.00  0.00    -0.269 OA
ATOM      5  C   UNL     1     117.362 158.517 117.365  1.00  0.00     0.323 C 
ATOM      6  N   UNL     1     116.265 159.187 116.684  1.00  0.00    -0.243 NA
ATOM      7  C   UNL     1     115.849 158.687 115.570  1.00  0.00     0.078 C 
ATOM      8  C   UNL     1     116.458 157.495 114.904  1.00  0.00     0.026 A 
ATOM      9  C   UNL     1     116.704 157.597 113.523  1.00  0.00     0.033 A 
ATOM     10  C   UNL     1     117.164 156.496 112.811  1.00  0.00     0.041 A 
ATOM     11  Cl  UNL     1     117.447 156.622 111.120  1.00  0.00    -0.084 Cl
ATOM     12  C   UNL     1     117.384 155.289 113.461  1.00  0.00     0.023 A 
ATOM     13  C   UNL     1     117.165 155.190 114.838  1.00  0.00     0.028 A 
ATOM     14  C   UNL     1     116.726 156.294 115.595  1.00  0.00     0.053 A 
ENDROOT
BRANCH   5  15
ATOM     15  O   UNL     1     117.903 159.306 118.413  1.00  0.00    -0.364 OA
ATOM     16  H   UNL     1     118.778 158.906 118.569  1.00  0.00     0.213 HD
ENDBRANCH   5  15
BRANCH   7  17
ATOM     17  C   UNL     1     114.683 159.359 114.913  1.00  0.00     0.000 A 
ATOM     18  C   UNL     1     113.402 158.821 115.089  1.00  0.00     0.010 A 
ATOM     19  C   UNL     1     114.855 160.492 114.107  1.00  0.00     0.010 A 
ATOM     20  C   UNL     1     112.299 159.427 114.487  1.00  0.00     0.001 A 
ATOM     21  C   UNL     1     113.748 161.096 113.508  1.00  0.00     0.001 A 
ATOM     22  C   UNL     1     112.472 160.566 113.701  1.00  0.00     0.000 A 
ENDBRANCH   7  17
TORSDOF 2
ENDMDL
MODEL 8
REMARK VINA RESULT:    -6.937      4.074      5.697
REMARK INTER + INTRA:          -7.917
REMARK INTER:                  -7.491
REMARK INTRA:                  -0.426
REMARK UNBOUND:                -0.372
REMARK SMILES CN1C(=O)C(O)N=C(c2ccccc2)c2cc(Cl)ccc21
REMARK SMILES IDX 1 1 2 2 3 3 4 4 5 5 7 6 8 7 15 8 16 9 17 10 18 11 19 12
REMARK SMILES IDX 20 13 21 14 6 15 9 17 10 18 14 19 11 20 13 21 12 22
REMARK H PARENT 6 16
ROOT
ATOM      1  C   UNL     1     113.909 160.133 117.277  1.00  0.00     0.153 C 
ATOM      2  N   UNL     1     114.921 159.155 116.895  1.00  0.00    -0.311 N 
ATOM      3  C   UNL     1     116.216 159.352 117.393  1.00  0.00     0.278 C 
ATOM      4  O   UNL     1     116.537 160.369 118.017  1.00  0.00    -0.269 OA
ATOM      5  C   UNL     1     117.235 158.197 117.177  1.00  0.00     0.323 C 
ATOM      6  N   UNL     1     117.633 158.247 115.779  1.00  0.00    -0.243 NA
ATOM      7  C   UNL     1     116.768 157.887 114.892  1.00  0.00     0.078 C 
ATOM      8  C   UNL     1     115.402 157.370 115.210  1.00  0.00     0.026 A 
ATOM      9  C   UNL     1     114.985 156.216 114.522  1.00  0.00     0.033 A 
ATOM     10  C   UNL     1     113.689 155.739 114.678  1.00  0.00     0.041 A 
ATOM     11  Cl  UNL     1     113.180 154.338 113.823  1.00  0.00    -0.084 Cl
ATOM     12  C   UNL     1     112.800 156.399 115.517  1.00  0.00     0.023 A 
ATOM     13  C   UNL     1     113.218 157.531 116.221  1.00  0.00     0.028 A 
ATOM     14  C   UNL     1     114.533 158.026 116.108  1.00  0.00     0.053 A 
ENDROOT
BRANCH   5  15
ATOM     15  O   UNL     1     118.341 158.344 118.054  1.00  0.00    -0.364 OA
ATOM     16  H   UNL     1     119.107 158.370 117.452  1.00  0.00     0.213 HD
ENDBRANCH   5  15
BRANCH   7  17
ATOM     17  C   UNL     1     117.178 157.998 113.455  1.00  0.00     0.000 A 
ATOM     18  C   UNL     1     116.768 159.116 112.717  1.00  0.00     0.010 A 
ATOM     19  C   UNL     1     117.934 156.995 112.835  1.00  0.00     0.010 A 
ATOM     20  C   UNL     1     117.136 159.242 111.377  1.00  0.00     0.001 A 
ATOM     21  C   UNL     1     118.300 157.127 111.493  1.00  0.00     0.001 A 
ATOM     22  C   UNL     1     117.904 158.251 110.767  1.00  0.00     0.000 A 
ENDBRANCH   7  17
TORSDOF 2
ENDMDL
MODEL 9
REMARK VINA RESULT:    -6.464      3.012      4.522
REMARK INTER + INTRA:          -7.403
REMARK INTER:                  -7.348
REMARK INTRA:                  -0.055
REMARK UNBOUND:                -0.372
REMARK SMILES CN1C(=O)C(O)N=C(c2ccccc2)c2cc(Cl)ccc21
REMARK SMILES IDX 1 1 2 2 3 3 4 4 5 5 7 6 8 7 15 8 16 9 17 10 18 11 19 12
REMARK SMILES IDX 20 13 21 14 6 15 9 17 10 18 14 19 11 20 13 21 12 22
REMARK H PARENT 6 16
ROOT
ATOM      1  C   UNL     1     112.086 159.715 114.141  1.00  0.00     0.153 C 
ATOM      2  N   UNL     1     113.532 159.872 114.245  1.00  0.00    -0.311 N 
ATOM      3  C   UNL     1     114.056 161.140 113.957  1.00  0.00     0.278 C 
ATOM      4  O   UNL     1     113.360 162.056 113.506  1.00  0.00    -0.269 OA
ATOM      5  C   UNL     1     115.559 161.371 114.286  1.00  0.00     0.323 C 
ATOM      6  N   UNL     1     116.322 160.685 113.255  1.00  0.00    -0.243 NA
ATOM      7  C   UNL     1     116.334 159.395 113.270  1.00  0.00     0.078 C 
ATOM      8  C   UNL     1     115.659 158.559 114.309  1.00  0.00     0.026 A 
ATOM      9  C   UNL     1     116.407 157.497 114.852  1.00  0.00     0.033 A 
ATOM     10  C   UNL     1     115.814 156.608 115.741  1.00  0.00     0.041 A 
ATOM     11  Cl  UNL     1     116.728 155.303 116.387  1.00  0.00    -0.084 Cl
ATOM     12  C   UNL     1     114.481 156.764 116.098  1.00  0.00     0.023 A 
ATOM     13  C   UNL     1     113.743 157.832 115.580  1.00  0.00     0.028 A 
ATOM     14  C   UNL     1     114.320 158.768 114.700  1.00  0.00     0.053 A 
ENDROOT
BRANCH   5  15
ATOM     15  O   UNL     1     115.846 162.759 114.332  1.00  0.00    -0.364 OA
ATOM     16  H   UNL     1     116.814 162.787 114.445  1.00  0.00     0.213 HD
ENDBRANCH   5  15
BRANCH   7  17
ATOM     17  C   UNL     1     117.080 158.707 112.168  1.00  0.00     0.000 A 
ATOM     18  C   UNL     1     117.993 159.445 111.404  1.00  0.00     0.010 A 
ATOM     19  C   UNL     1     116.859 157.356 111.872  1.00  0.00     0.010 A 
ATOM     20  C   UNL     1     118.701 158.828 110.371  1.00  0.00     0.001 A 
ATOM     21  C   UNL     1     117.570 156.743 110.838  1.00  0.00     0.001 A 
ATOM     22  C   UNL     1     118.492 157.478 110.092  1.00  0.00     0.000 A 
ENDBRANCH   7  17
TORSDOF 2
ENDMDL
