MODEL 1
REMARK VINA RESULT:    -9.174      0.000      0.000
REMARK INTER + INTRA:         -11.945
REMARK INTER:                 -11.320
REMARK INTRA:                  -0.625
REMARK UNBOUND:                -0.625
REMARK SMILES CCN(C(C)=O)c1cccc(-c2ccnc3c(C#N)cnn23)c1
REMARK SMILES IDX 3 1 2 2 1 3 4 4 6 5 5 6 7 7 8 8 23 9 9 10 11 11 10 12 12 13
REMARK SMILES IDX 13 14 22 15 14 16 21 17 16 18 15 19 20 20 17 21 18 22 19 23
REMARK H PARENT
ROOT
ATOM      1  N   UNL     1     118.746 156.914 106.925  1.00  0.00    -0.313 N 
ENDROOT
BRANCH   1   2
ATOM      2  C   UNL     1     118.865 157.367 105.527  1.00  0.00     0.122 C 
ATOM      3  C   UNL     1     120.050 156.733 104.806  1.00  0.00     0.028 C 
ENDBRANCH   1   2
BRANCH   1   4
ATOM      4  C   UNL     1     118.179 155.658 107.223  1.00  0.00     0.223 C 
ATOM      5  O   UNL     1     118.543 154.905 108.130  1.00  0.00    -0.275 OA
ATOM      6  C   UNL     1     117.022 155.203 106.360  1.00  0.00     0.115 C 
ENDBRANCH   1   4
BRANCH   1   7
ATOM      7  C   UNL     1     119.157 157.831 107.976  1.00  0.00     0.044 A 
ATOM      8  C   UNL     1     120.361 158.546 107.906  1.00  0.00     0.026 A 
ATOM      9  C   UNL     1     118.347 158.072 109.104  1.00  0.00     0.036 A 
ATOM     10  C   UNL     1     120.758 159.426 108.918  1.00  0.00     0.003 A 
ATOM     11  C   UNL     1     118.726 158.959 110.132  1.00  0.00     0.002 A 
ATOM     12  C   UNL     1     119.948 159.628 110.030  1.00  0.00     0.010 A 
BRANCH  11  13
ATOM     13  C   UNL     1     117.843 159.178 111.299  1.00  0.00     0.076 C 
ATOM     14  C   UNL     1     117.180 160.346 111.405  1.00  0.00     0.049 C 
ATOM     15  N   UNL     1     117.654 158.195 112.293  1.00  0.00    -0.213 N 
ATOM     16  C   UNL     1     116.303 160.497 112.593  1.00  0.00     0.116 C 
ATOM     17  N   UNL     1     118.203 156.948 112.371  1.00  0.00    -0.173 NA
ATOM     18  C   UNL     1     116.799 158.438 113.384  1.00  0.00     0.173 A 
ATOM     19  N   UNL     1     116.115 159.615 113.525  1.00  0.00    -0.236 NA
ATOM     20  C   UNL     1     117.718 156.432 113.501  1.00  0.00     0.157 A 
ATOM     21  C   UNL     1     116.848 157.303 114.162  1.00  0.00     0.117 A 
ATOM     22  C   UNL     1     116.151 157.072 115.379  1.00  0.00     0.105 C 
ATOM     23  N   UNL     1     115.600 156.841 116.375  1.00  0.00    -0.192 NA
ENDBRANCH  11  13
ENDBRANCH   1   7
TORSDOF 4
ENDMDL
MODEL 2
REMARK VINA RESULT:    -8.842      1.940      6.839
REMARK INTER + INTRA:         -11.534
REMARK INTER:                 -10.840
REMARK INTRA:                  -0.695
REMARK UNBOUND:                -0.625
REMARK SMILES CCN(C(C)=O)c1cccc(-c2ccnc3c(C#N)cnn23)c1
REMARK SMILES IDX 3 1 2 2 1 3 4 4 6 5 5 6 7 7 8 8 23 9 9 10 11 11 10 12 12 13
REMARK SMILES IDX 13 14 22 15 14 16 21 17 16 18 15 19 20 20 17 21 18 22 19 23
REMARK H PARENT
ROOT
ATOM      1  N   UNL     1     116.838 156.487 113.410  1.00  0.00    -0.313 N 
ENDROOT
BRANCH   1   2
ATOM      2  C   UNL     1     118.009 155.691 113.822  1.00  0.00     0.122 C 
ATOM      3  C   UNL     1     117.850 154.209 113.502  1.00  0.00     0.028 C 
ENDBRANCH   1   2
BRANCH   1   4
ATOM      4  C   UNL     1     115.532 156.028 113.678  1.00  0.00     0.223 C 
ATOM      5  O   UNL     1     114.757 155.550 112.846  1.00  0.00    -0.275 OA
ATOM      6  C   UNL     1     115.050 156.123 115.109  1.00  0.00     0.115 C 
ENDBRANCH   1   4
BRANCH   1   7
ATOM      7  C   UNL     1     117.075 157.707 112.656  1.00  0.00     0.044 A 
ATOM      8  C   UNL     1     116.486 158.927 113.017  1.00  0.00     0.026 A 
ATOM      9  C   UNL     1     117.938 157.731 111.542  1.00  0.00     0.036 A 
ATOM     10  C   UNL     1     116.711 160.101 112.290  1.00  0.00     0.003 A 
ATOM     11  C   UNL     1     118.183 158.904 110.799  1.00  0.00     0.002 A 
ATOM     12  C   UNL     1     117.550 160.089 111.182  1.00  0.00     0.010 A 
BRANCH  11  13
ATOM     13  C   UNL     1     119.095 158.879 109.634  1.00  0.00     0.076 C 
ATOM     14  C   UNL     1     120.251 159.569 109.696  1.00  0.00     0.049 C 
ATOM     15  N   UNL     1     118.805 158.139 108.468  1.00  0.00    -0.213 N 
ATOM     16  C   UNL     1     121.125 159.493 108.499  1.00  0.00     0.116 C 
ATOM     17  N   UNL     1     117.714 157.363 108.203  1.00  0.00    -0.173 NA
ATOM     18  C   UNL     1     119.702 158.135 107.384  1.00  0.00     0.173 A 
ATOM     19  N   UNL     1     120.883 158.828 107.413  1.00  0.00    -0.236 NA
ATOM     20  C   UNL     1     117.917 156.900 106.969  1.00  0.00     0.157 A 
ATOM     21  C   UNL     1     119.124 157.341 106.419  1.00  0.00     0.117 A 
ATOM     22  C   UNL     1     119.654 157.035 105.136  1.00  0.00     0.105 C 
ATOM     23  N   UNL     1     120.050 156.757 104.081  1.00  0.00    -0.192 NA
ENDBRANCH  11  13
ENDBRANCH   1   7
TORSDOF 4
ENDMDL
MODEL 3
REMARK VINA RESULT:    -8.702      2.316      7.296
REMARK INTER + INTRA:         -11.362
REMARK INTER:                 -11.034
REMARK INTRA:                  -0.328
REMARK UNBOUND:                -0.625
REMARK SMILES CCN(C(C)=O)c1cccc(-c2ccnc3c(C#N)cnn23)c1
REMARK SMILES IDX 3 1 2 2 1 3 4 4 6 5 5 6 7 7 8 8 23 9 9 10 11 11 10 12 12 13
REMARK SMILES IDX 13 14 22 15 14 16 21 17 16 18 15 19 20 20 17 21 18 22 19 23
REMARK H PARENT
ROOT
ATOM      1  N   UNL     1     116.235 155.496 113.940  1.00  0.00    -0.313 N 
ENDROOT
BRANCH   1   2
ATOM      2  C   UNL     1     114.898 155.604 114.553  1.00  0.00     0.122 C 
ATOM      3  C   UNL     1     113.854 154.765 113.824  1.00  0.00     0.028 C 
ENDBRANCH   1   2
BRANCH   1   4
ATOM      4  C   UNL     1     117.148 154.518 114.385  1.00  0.00     0.223 C 
ATOM      5  O   UNL     1     118.206 154.219 113.826  1.00  0.00    -0.275 OA
ATOM      6  C   UNL     1     116.799 153.781 115.660  1.00  0.00     0.115 C 
ENDBRANCH   1   4
BRANCH   1   7
ATOM      7  C   UNL     1     116.602 156.475 112.929  1.00  0.00     0.044 A 
ATOM      8  C   UNL     1     116.891 157.807 113.258  1.00  0.00     0.026 A 
ATOM      9  C   UNL     1     116.720 156.123 111.569  1.00  0.00     0.036 A 
ATOM     10  C   UNL     1     117.241 158.749 112.285  1.00  0.00     0.003 A 
ATOM     11  C   UNL     1     117.076 157.055 110.575  1.00  0.00     0.002 A 
ATOM     12  C   UNL     1     117.327 158.378 110.948  1.00  0.00     0.010 A 
BRANCH  11  13
ATOM     13  C   UNL     1     117.184 156.640 109.158  1.00  0.00     0.076 C 
ATOM     14  C   UNL     1     116.198 155.894 108.621  1.00  0.00     0.049 C 
ATOM     15  N   UNL     1     118.272 157.018 108.344  1.00  0.00    -0.213 N 
ATOM     16  C   UNL     1     116.361 155.521 107.194  1.00  0.00     0.116 C 
ATOM     17  N   UNL     1     119.356 157.779 108.674  1.00  0.00    -0.173 NA
ATOM     18  C   UNL     1     118.333 156.610 106.999  1.00  0.00     0.173 A 
ATOM     19  N   UNL     1     117.352 155.848 106.424  1.00  0.00    -0.236 NA
ATOM     20  C   UNL     1     120.090 157.826 107.562  1.00  0.00     0.157 A 
ATOM     21  C   UNL     1     119.508 157.127 106.500  1.00  0.00     0.117 A 
ATOM     22  C   UNL     1     120.013 156.980 105.180  1.00  0.00     0.105 C 
ATOM     23  N   UNL     1     120.460 156.886 104.113  1.00  0.00    -0.192 NA
ENDBRANCH  11  13
ENDBRANCH   1   7
TORSDOF 4
ENDMDL
MODEL 4
REMARK VINA RESULT:    -8.615      1.703      3.114
REMARK INTER + INTRA:         -11.254
REMARK INTER:                 -10.708
REMARK INTRA:                  -0.546
REMARK UNBOUND:                -0.625
REMARK SMILES CCN(C(C)=O)c1cccc(-c2ccnc3c(C#N)cnn23)c1
REMARK SMILES IDX 3 1 2 2 1 3 4 4 6 5 5 6 7 7 8 8 23 9 9 10 11 11 10 12 12 13
REMARK SMILES IDX 13 14 22 15 14 16 21 17 16 18 15 19 20 20 17 21 18 22 19 23
REMARK H PARENT
ROOT
ATOM      1  N   UNL     1     118.417 156.554 107.600  1.00  0.00    -0.313 N 
ENDROOT
BRANCH   1   2
ATOM      2  C   UNL     1     117.875 155.187 107.485  1.00  0.00     0.122 C 
ATOM      3  C   UNL     1     116.460 155.166 106.918  1.00  0.00     0.028 C 
ENDBRANCH   1   2
BRANCH   1   4
ATOM      4  C   UNL     1     118.832 157.257 106.450  1.00  0.00     0.223 C 
ATOM      5  O   UNL     1     118.224 158.192 105.925  1.00  0.00    -0.275 OA
ATOM      6  C   UNL     1     120.137 156.828 105.815  1.00  0.00     0.115 C 
ENDBRANCH   1   4
BRANCH   1   7
ATOM      7  C   UNL     1     118.581 157.112 108.932  1.00  0.00     0.044 A 
ATOM      8  C   UNL     1     119.326 158.277 109.161  1.00  0.00     0.026 A 
ATOM      9  C   UNL     1     117.970 156.526 110.059  1.00  0.00     0.036 A 
ATOM     10  C   UNL     1     119.486 158.813 110.443  1.00  0.00     0.003 A 
ATOM     11  C   UNL     1     118.114 157.052 111.358  1.00  0.00     0.002 A 
ATOM     12  C   UNL     1     118.889 158.200 111.539  1.00  0.00     0.010 A 
BRANCH  11  13
ATOM     13  C   UNL     1     117.455 156.399 112.512  1.00  0.00     0.076 C 
ATOM     14  C   UNL     1     117.717 155.101 112.762  1.00  0.00     0.049 C 
ATOM     15  N   UNL     1     116.580 157.096 113.371  1.00  0.00    -0.213 N 
ATOM     16  C   UNL     1     117.033 154.510 113.940  1.00  0.00     0.116 C 
ATOM     17  N   UNL     1     116.196 158.405 113.314  1.00  0.00    -0.173 NA
ATOM     18  C   UNL     1     115.979 156.442 114.462  1.00  0.00     0.173 A 
ATOM     19  N   UNL     1     116.220 155.124 114.743  1.00  0.00    -0.236 NA
ATOM     20  C   UNL     1     115.355 158.558 114.337  1.00  0.00     0.157 A 
ATOM     21  C   UNL     1     115.187 157.385 115.078  1.00  0.00     0.117 A 
ATOM     22  C   UNL     1     114.376 157.197 116.230  1.00  0.00     0.105 C 
ATOM     23  N   UNL     1     113.702 157.088 117.169  1.00  0.00    -0.192 NA
ENDBRANCH  11  13
ENDBRANCH   1   7
TORSDOF 4
ENDMDL
MODEL 5
REMARK VINA RESULT:    -8.567      2.844      7.410
REMARK INTER + INTRA:         -11.196
REMARK INTER:                 -10.748
REMARK INTRA:                  -0.448
REMARK UNBOUND:                -0.625
REMARK SMILES CCN(C(C)=O)c1cccc(-c2ccnc3c(C#N)cnn23)c1
REMARK SMILES IDX 3 1 2 2 1 3 4 4 6 5 5 6 7 7 8 8 23 9 9 10 11 11 10 12 12 13
REMARK SMILES IDX 13 14 22 15 14 16 21 17 16 18 15 19 20 20 17 21 18 22 19 23
REMARK H PARENT
ROOT
ATOM      1  N   UNL     1     116.254 161.070 112.846  1.00  0.00    -0.313 N 
ENDROOT
BRANCH   1   2
ATOM      2  C   UNL     1     116.643 162.357 112.241  1.00  0.00     0.122 C 
ATOM      3  C   UNL     1     116.581 163.512 113.234  1.00  0.00     0.028 C 
ENDBRANCH   1   2
BRANCH   1   4
ATOM      4  C   UNL     1     115.325 161.032 113.907  1.00  0.00     0.223 C 
ATOM      5  O   UNL     1     115.607 161.083 115.107  1.00  0.00    -0.275 OA
ATOM      6  C   UNL     1     113.861 160.928 113.537  1.00  0.00     0.115 C 
ENDBRANCH   1   4
BRANCH   1   7
ATOM      7  C   UNL     1     116.913 159.865 112.370  1.00  0.00     0.044 A 
ATOM      8  C   UNL     1     116.728 158.623 112.994  1.00  0.00     0.026 A 
ATOM      9  C   UNL     1     117.746 159.879 111.234  1.00  0.00     0.036 A 
ATOM     10  C   UNL     1     117.365 157.464 112.538  1.00  0.00     0.003 A 
ATOM     11  C   UNL     1     118.392 158.723 110.754  1.00  0.00     0.002 A 
ATOM     12  C   UNL     1     118.199 157.513 111.427  1.00  0.00     0.010 A 
BRANCH  11  13
ATOM     13  C   UNL     1     119.262 158.788 109.558  1.00  0.00     0.076 C 
ATOM     14  C   UNL     1     120.363 159.563 109.595  1.00  0.00     0.049 C 
ATOM     15  N   UNL     1     118.989 158.047 108.389  1.00  0.00    -0.213 N 
ATOM     16  C   UNL     1     121.198 159.575 108.367  1.00  0.00     0.116 C 
ATOM     17  N   UNL     1     117.952 157.193 108.147  1.00  0.00    -0.173 NA
ATOM     18  C   UNL     1     119.844 158.129 107.275  1.00  0.00     0.173 A 
ATOM     19  N   UNL     1     120.969 158.911 107.277  1.00  0.00    -0.236 NA
ATOM     20  C   UNL     1     118.145 156.768 106.898  1.00  0.00     0.157 A 
ATOM     21  C   UNL     1     119.295 157.310 106.315  1.00  0.00     0.117 A 
ATOM     22  C   UNL     1     119.800 157.066 105.010  1.00  0.00     0.105 C 
ATOM     23  N   UNL     1     120.179 156.838 103.936  1.00  0.00    -0.192 NA
ENDBRANCH  11  13
ENDBRANCH   1   7
TORSDOF 4
ENDMDL
MODEL 6
REMARK VINA RESULT:    -8.523      2.458      3.732
REMARK INTER + INTRA:         -11.141
REMARK INTER:                 -11.028
REMARK INTRA:                  -0.113
REMARK UNBOUND:                -0.625
REMARK SMILES CCN(C(C)=O)c1cccc(-c2ccnc3c(C#N)cnn23)c1
REMARK SMILES IDX 3 1 2 2 1 3 4 4 6 5 5 6 7 7 8 8 23 9 9 10 11 11 10 12 12 13
REMARK SMILES IDX 13 14 22 15 14 16 21 17 16 18 15 19 20 20 17 21 18 22 19 23
REMARK H PARENT
ROOT
ATOM      1  N   UNL     1     121.411 160.842 108.504  1.00  0.00    -0.313 N 
ENDROOT
BRANCH   1   2
ATOM      2  C   UNL     1     122.659 160.450 107.823  1.00  0.00     0.122 C 
ATOM      3  C   UNL     1     122.654 160.811 106.342  1.00  0.00     0.028 C 
ENDBRANCH   1   2
BRANCH   1   4
ATOM      4  C   UNL     1     121.180 162.189 108.852  1.00  0.00     0.223 C 
ATOM      5  O   UNL     1     120.074 162.726 108.937  1.00  0.00    -0.275 OA
ATOM      6  C   UNL     1     122.395 163.039 109.154  1.00  0.00     0.115 C 
ENDBRANCH   1   4
BRANCH   1   7
ATOM      7  C   UNL     1     120.476 159.791 108.870  1.00  0.00     0.044 A 
ATOM      8  C   UNL     1     120.398 158.587 108.156  1.00  0.00     0.026 A 
ATOM      9  C   UNL     1     119.621 159.917 109.984  1.00  0.00     0.036 A 
ATOM     10  C   UNL     1     119.495 157.577 108.506  1.00  0.00     0.003 A 
ATOM     11  C   UNL     1     118.709 158.910 110.357  1.00  0.00     0.002 A 
ATOM     12  C   UNL     1     118.650 157.739 109.597  1.00  0.00     0.010 A 
BRANCH  11  13
ATOM     13  C   UNL     1     117.829 159.090 111.533  1.00  0.00     0.076 C 
ATOM     14  C   UNL     1     117.123 160.232 111.650  1.00  0.00     0.049 C 
ATOM     15  N   UNL     1     117.688 158.097 112.525  1.00  0.00    -0.213 N 
ATOM     16  C   UNL     1     116.252 160.344 112.847  1.00  0.00     0.116 C 
ATOM     17  N   UNL     1     118.286 156.872 112.592  1.00  0.00    -0.173 NA
ATOM     18  C   UNL     1     116.835 158.302 113.625  1.00  0.00     0.173 A 
ATOM     19  N   UNL     1     116.106 159.451 113.776  1.00  0.00    -0.236 NA
ATOM     20  C   UNL     1     117.832 156.332 113.724  1.00  0.00     0.157 A 
ATOM     21  C   UNL     1     116.934 157.167 114.397  1.00  0.00     0.117 A 
ATOM     22  C   UNL     1     116.259 156.904 115.620  1.00  0.00     0.105 C 
ATOM     23  N   UNL     1     115.726 156.648 116.619  1.00  0.00    -0.192 NA
ENDBRANCH  11  13
ENDBRANCH   1   7
TORSDOF 4
ENDMDL
MODEL 7
REMARK VINA RESULT:    -8.319      1.537      2.627
REMARK INTER + INTRA:         -10.889
REMARK INTER:                 -10.527
REMARK INTRA:                  -0.362
REMARK UNBOUND:                -0.625
REMARK SMILES CCN(C(C)=O)c1cccc(-c2ccnc3c(C#N)cnn23)c1
REMARK SMILES IDX 3 1 2 2 1 3 4 4 6 5 5 6 7 7 8 8 23 9 9 10 11 11 10 12 12 13
REMARK SMILES IDX 13 14 22 15 14 16 21 17 16 18 15 19 20 20 17 21 18 22 19 23
REMARK H PARENT
ROOT
ATOM      1  N   UNL     1     118.872 157.171 106.836  1.00  0.00    -0.313 N 
ENDROOT
BRANCH   1   2
ATOM      2  C   UNL     1     117.521 156.614 106.639  1.00  0.00     0.122 C 
ATOM      3  C   UNL     1     117.507 155.090 106.677  1.00  0.00     0.028 C 
ENDBRANCH   1   2
BRANCH   1   4
ATOM      4  C   UNL     1     119.872 156.982 105.860  1.00  0.00     0.223 C 
ATOM      5  O   UNL     1     121.054 156.715 106.087  1.00  0.00    -0.275 OA
ATOM      6  C   UNL     1     119.451 157.112 104.411  1.00  0.00     0.115 C 
ENDBRANCH   1   4
BRANCH   1   7
ATOM      7  C   UNL     1     119.156 157.843 108.093  1.00  0.00     0.044 A 
ATOM      8  C   UNL     1     120.176 158.798 108.209  1.00  0.00     0.026 A 
ATOM      9  C   UNL     1     118.394 157.593 109.253  1.00  0.00     0.036 A 
ATOM     10  C   UNL     1     120.451 159.443 109.420  1.00  0.00     0.003 A 
ATOM     11  C   UNL     1     118.651 158.236 110.480  1.00  0.00     0.002 A 
ATOM     12  C   UNL     1     119.697 159.160 110.553  1.00  0.00     0.010 A 
BRANCH  11  13
ATOM     13  C   UNL     1     117.826 157.938 111.672  1.00  0.00     0.076 C 
ATOM     14  C   UNL     1     117.866 156.699 112.199  1.00  0.00     0.049 C 
ATOM     15  N   UNL     1     117.016 158.915 112.289  1.00  0.00    -0.213 N 
ATOM     16  C   UNL     1     117.025 156.469 113.401  1.00  0.00     0.116 C 
ATOM     17  N   UNL     1     116.845 160.222 111.938  1.00  0.00    -0.173 NA
ATOM     18  C   UNL     1     116.252 158.594 113.427  1.00  0.00     0.173 A 
ATOM     19  N   UNL     1     116.267 157.344 113.985  1.00  0.00    -0.236 NA
ATOM     20  C   UNL     1     115.973 160.702 112.826  1.00  0.00     0.157 A 
ATOM     21  C   UNL     1     115.578 159.746 113.766  1.00  0.00     0.117 A 
ATOM     22  C   UNL     1     114.675 159.918 114.850  1.00  0.00     0.105 C 
ATOM     23  N   UNL     1     113.933 160.103 115.724  1.00  0.00    -0.192 NA
ENDBRANCH  11  13
ENDBRANCH   1   7
TORSDOF 4
ENDMDL
MODEL 8
REMARK VINA RESULT:    -8.190      1.663      2.120
REMARK INTER + INTRA:         -10.730
REMARK INTER:                 -10.686
REMARK INTRA:                  -0.044
REMARK UNBOUND:                -0.625
REMARK SMILES CCN(C(C)=O)c1cccc(-c2ccnc3c(C#N)cnn23)c1
REMARK SMILES IDX 3 1 2 2 1 3 4 4 6 5 5 6 7 7 8 8 23 9 9 10 11 11 10 12 12 13
REMARK SMILES IDX 13 14 22 15 14 16 21 17 16 18 15 19 20 20 17 21 18 22 19 23
REMARK H PARENT
ROOT
ATOM      1  N   UNL     1     117.926 156.372 107.835  1.00  0.00    -0.313 N 
ENDROOT
BRANCH   1   2
ATOM      2  C   UNL     1     118.934 156.073 106.801  1.00  0.00     0.122 C 
ATOM      3  C   UNL     1     118.894 157.064 105.643  1.00  0.00     0.028 C 
ENDBRANCH   1   2
BRANCH   1   4
ATOM      4  C   UNL     1     116.587 155.963 107.667  1.00  0.00     0.223 C 
ATOM      5  O   UNL     1     115.615 156.436 108.258  1.00  0.00    -0.275 OA
ATOM      6  C   UNL     1     116.327 154.855 106.668  1.00  0.00     0.115 C 
ENDBRANCH   1   4
BRANCH   1   7
ATOM      7  C   UNL     1     118.341 157.163 108.982  1.00  0.00     0.044 A 
ATOM      8  C   UNL     1     119.383 158.097 108.900  1.00  0.00     0.026 A 
ATOM      9  C   UNL     1     117.691 157.053 110.228  1.00  0.00     0.036 A 
ATOM     10  C   UNL     1     119.784 158.856 110.005  1.00  0.00     0.003 A 
ATOM     11  C   UNL     1     118.076 157.812 111.351  1.00  0.00     0.002 A 
ATOM     12  C   UNL     1     119.139 158.711 111.227  1.00  0.00     0.010 A 
BRANCH  11  13
ATOM     13  C   UNL     1     117.365 157.660 112.641  1.00  0.00     0.076 C 
ATOM     14  C   UNL     1     116.757 158.735 113.180  1.00  0.00     0.049 C 
ATOM     15  N   UNL     1     117.284 156.423 113.313  1.00  0.00    -0.213 N 
ATOM     16  C   UNL     1     116.053 158.513 114.468  1.00  0.00     0.116 C 
ATOM     17  N   UNL     1     117.803 155.217 112.940  1.00  0.00    -0.173 NA
ATOM     18  C   UNL     1     116.592 156.317 114.534  1.00  0.00     0.173 A 
ATOM     19  N   UNL     1     115.967 157.390 115.111  1.00  0.00    -0.236 NA
ATOM     20  C   UNL     1     117.460 154.380 113.919  1.00  0.00     0.157 A 
ATOM     21  C   UNL     1     116.712 155.003 114.924  1.00  0.00     0.117 A 
ATOM     22  C   UNL     1     116.180 154.409 116.100  1.00  0.00     0.105 C 
ATOM     23  N   UNL     1     115.762 153.884 117.048  1.00  0.00    -0.192 NA
ENDBRANCH  11  13
ENDBRANCH   1   7
TORSDOF 4
ENDMDL
MODEL 9
REMARK VINA RESULT:    -8.139      2.610      7.509
REMARK INTER + INTRA:         -10.667
REMARK INTER:                 -10.312
REMARK INTRA:                  -0.355
REMARK UNBOUND:                -0.625
REMARK SMILES CCN(C(C)=O)c1cccc(-c2ccnc3c(C#N)cnn23)c1
REMARK SMILES IDX 3 1 2 2 1 3 4 4 6 5 5 6 7 7 8 8 23 9 9 10 11 11 10 12 12 13
REMARK SMILES IDX 13 14 22 15 14 16 21 17 16 18 15 19 20 20 17 21 18 22 19 23
REMARK H PARENT
ROOT
ATOM      1  N   UNL     1     116.428 158.225 115.030  1.00  0.00    -0.313 N 
ENDROOT
BRANCH   1   2
ATOM      2  C   UNL     1     117.101 157.997 116.323  1.00  0.00     0.122 C 
ATOM      3  C   UNL     1     116.223 157.235 117.310  1.00  0.00     0.028 C 
ENDBRANCH   1   2
BRANCH   1   4
ATOM      4  C   UNL     1     115.411 159.196 114.916  1.00  0.00     0.223 C 
ATOM      5  O   UNL     1     115.566 160.413 115.037  1.00  0.00    -0.275 OA
ATOM      6  C   UNL     1     114.015 158.696 114.611  1.00  0.00     0.115 C 
ENDBRANCH   1   4
BRANCH   1   7
ATOM      7  C   UNL     1     116.792 157.371 113.913  1.00  0.00     0.044 A 
ATOM      8  C   UNL     1     116.481 156.004 113.894  1.00  0.00     0.026 A 
ATOM      9  C   UNL     1     117.448 157.882 112.775  1.00  0.00     0.036 A 
ATOM     10  C   UNL     1     116.834 155.180 112.819  1.00  0.00     0.003 A 
ATOM     11  C   UNL     1     117.807 157.071 111.680  1.00  0.00     0.002 A 
ATOM     12  C   UNL     1     117.500 155.708 111.720  1.00  0.00     0.010 A 
BRANCH  11  13
ATOM     13  C   UNL     1     118.499 157.652 110.507  1.00  0.00     0.076 C 
ATOM     14  C   UNL     1     119.390 158.644 110.703  1.00  0.00     0.049 C 
ATOM     15  N   UNL     1     118.273 157.188 109.195  1.00  0.00    -0.213 N 
ATOM     16  C   UNL     1     120.056 159.176 109.487  1.00  0.00     0.116 C 
ATOM     17  N   UNL     1     117.440 156.191 108.777  1.00  0.00    -0.173 NA
ATOM     18  C   UNL     1     118.957 157.761 108.107  1.00  0.00     0.173 A 
ATOM     19  N   UNL     1     119.865 158.773 108.269  1.00  0.00    -0.236 NA
ATOM     20  C   UNL     1     117.584 156.158 107.452  1.00  0.00     0.157 A 
ATOM     21  C   UNL     1     118.506 157.100 106.986  1.00  0.00     0.117 A 
ATOM     22  C   UNL     1     118.904 157.330 105.642  1.00  0.00     0.105 C 
ATOM     23  N   UNL     1     119.202 157.484 104.530  1.00  0.00    -0.192 NA
ENDBRANCH  11  13
ENDBRANCH   1   7
TORSDOF 4
ENDMDL
