MODEL 1
REMARK VINA RESULT:    -9.800      0.000      0.000
REMARK INTER + INTRA:         -11.050
REMARK INTER:                 -10.659
REMARK INTRA:                  -0.391
REMARK UNBOUND:                -0.391
REMARK SMILES CN1C(=O)C(O)N=C(c2ccccc2)c2cc(Cl)ccc21
REMARK SMILES IDX 1 1 2 2 3 3 4 4 5 5 7 6 8 7 15 8 16 9 17 10 18 11 19 12
REMARK SMILES IDX 20 13 21 14 6 15 9 17 10 18 14 19 11 20 13 21 12 22
REMARK H PARENT 6 16
ROOT
ATOM      1  C   UNL     1     116.333 160.613 112.547  1.00  0.00     0.153 C 
ATOM      2  N   UNL     1     117.301 159.785 111.839  1.00  0.00    -0.311 N 
ATOM      3  C   UNL     1     118.130 160.428 110.910  1.00  0.00     0.278 C 
ATOM      4  O   UNL     1     117.975 161.613 110.595  1.00  0.00    -0.269 OA
ATOM      5  C   UNL     1     119.308 159.597 110.325  1.00  0.00     0.323 C 
ATOM      6  N   UNL     1     118.730 158.678 109.357  1.00  0.00    -0.243 NA
ATOM      7  C   UNL     1     118.025 157.694 109.805  1.00  0.00     0.078 C 
ATOM      8  C   UNL     1     117.808 157.406 111.255  1.00  0.00     0.026 A 
ATOM      9  C   UNL     1     117.967 156.070 111.667  1.00  0.00     0.033 A 
ATOM     10  C   UNL     1     117.675 155.702 112.975  1.00  0.00     0.041 A 
ATOM     11  Cl  UNL     1     117.855 154.065 113.467  1.00  0.00    -0.084 Cl
ATOM     12  C   UNL     1     117.226 156.652 113.882  1.00  0.00     0.023 A 
ATOM     13  C   UNL     1     117.091 157.985 113.484  1.00  0.00     0.028 A 
ATOM     14  C   UNL     1     117.405 158.398 112.175  1.00  0.00     0.053 A 
ENDROOT
BRANCH   5  15
ATOM     15  O   UNL     1     120.274 160.455 109.738  1.00  0.00    -0.364 OA
ATOM     16  H   UNL     1     119.795 160.858 108.991  1.00  0.00     0.213 HD
ENDBRANCH   5  15
BRANCH   7  17
ATOM     17  C   UNL     1     117.393 156.791 108.790  1.00  0.00     0.000 A 
ATOM     18  C   UNL     1     118.155 156.361 107.697  1.00  0.00     0.010 A 
ATOM     19  C   UNL     1     116.054 156.396 108.902  1.00  0.00     0.010 A 
ATOM     20  C   UNL     1     117.590 155.520 106.738  1.00  0.00     0.001 A 
ATOM     21  C   UNL     1     115.493 155.553 107.940  1.00  0.00     0.001 A 
ATOM     22  C   UNL     1     116.261 155.113 106.862  1.00  0.00     0.000 A 
ENDBRANCH   7  17
TORSDOF 2
ENDMDL
MODEL 2
REMARK VINA RESULT:    -8.430      3.250      6.110
REMARK INTER + INTRA:          -9.561
REMARK INTER:                  -9.823
REMARK INTRA:                   0.262
REMARK UNBOUND:                -0.391
REMARK SMILES CN1C(=O)C(O)N=C(c2ccccc2)c2cc(Cl)ccc21
REMARK SMILES IDX 1 1 2 2 3 3 4 4 5 5 7 6 8 7 15 8 16 9 17 10 18 11 19 12
REMARK SMILES IDX 20 13 21 14 6 15 9 17 10 18 14 19 11 20 13 21 12 22
REMARK H PARENT 6 16
ROOT
ATOM      1  C   UNL     1     117.276 156.537 107.246  1.00  0.00     0.153 C 
ATOM      2  N   UNL     1     117.858 156.952 108.517  1.00  0.00    -0.311 N 
ATOM      3  C   UNL     1     117.332 156.369 109.678  1.00  0.00     0.278 C 
ATOM      4  O   UNL     1     116.336 155.638 109.657  1.00  0.00    -0.269 OA
ATOM      5  C   UNL     1     118.096 156.635 111.006  1.00  0.00     0.323 C 
ATOM      6  N   UNL     1     117.784 157.999 111.402  1.00  0.00    -0.243 NA
ATOM      7  C   UNL     1     118.294 158.961 110.709  1.00  0.00     0.078 C 
ATOM      8  C   UNL     1     119.229 158.765 109.560  1.00  0.00     0.026 A 
ATOM      9  C   UNL     1     120.378 159.578 109.531  1.00  0.00     0.033 A 
ATOM     10  C   UNL     1     121.238 159.535 108.440  1.00  0.00     0.041 A 
ATOM     11  Cl  UNL     1     122.630 160.542 108.405  1.00  0.00    -0.084 Cl
ATOM     12  C   UNL     1     120.968 158.689 107.373  1.00  0.00     0.023 A 
ATOM     13  C   UNL     1     119.841 157.862 107.409  1.00  0.00     0.028 A 
ATOM     14  C   UNL     1     118.964 157.859 108.511  1.00  0.00     0.053 A 
ENDROOT
BRANCH   5  15
ATOM     15  O   UNL     1     117.714 155.690 111.993  1.00  0.00    -0.364 OA
ATOM     16  H   UNL     1     117.083 155.114 111.524  1.00  0.00     0.213 HD
ENDBRANCH   5  15
BRANCH   7  17
ATOM     17  C   UNL     1     117.916 160.357 111.099  1.00  0.00     0.000 A 
ATOM     18  C   UNL     1     116.864 160.548 112.002  1.00  0.00     0.010 A 
ATOM     19  C   UNL     1     118.575 161.468 110.555  1.00  0.00     0.010 A 
ATOM     20  C   UNL     1     116.492 161.839 112.381  1.00  0.00     0.001 A 
ATOM     21  C   UNL     1     118.200 162.757 110.938  1.00  0.00     0.001 A 
ATOM     22  C   UNL     1     117.162 162.942 111.852  1.00  0.00     0.000 A 
ENDBRANCH   7  17
TORSDOF 2
ENDMDL
MODEL 3
REMARK VINA RESULT:    -8.119      2.643      3.603
REMARK INTER + INTRA:          -9.222
REMARK INTER:                  -9.409
REMARK INTRA:                   0.187
REMARK UNBOUND:                -0.391
REMARK SMILES CN1C(=O)C(O)N=C(c2ccccc2)c2cc(Cl)ccc21
REMARK SMILES IDX 1 1 2 2 3 3 4 4 5 5 7 6 8 7 15 8 16 9 17 10 18 11 19 12
REMARK SMILES IDX 20 13 21 14 6 15 9 17 10 18 14 19 11 20 13 21 12 22
REMARK H PARENT 6 16
ROOT
ATOM      1  C   UNL     1     119.155 162.722 109.848  1.00  0.00     0.153 C 
ATOM      2  N   UNL     1     119.951 161.532 109.572  1.00  0.00    -0.311 N 
ATOM      3  C   UNL     1     121.214 161.731 108.998  1.00  0.00     0.278 C 
ATOM      4  O   UNL     1     121.599 162.841 108.614  1.00  0.00    -0.269 OA
ATOM      5  C   UNL     1     122.151 160.492 108.913  1.00  0.00     0.323 C 
ATOM      6  N   UNL     1     121.651 159.664 107.826  1.00  0.00    -0.243 NA
ATOM      7  C   UNL     1     120.540 159.034 108.008  1.00  0.00     0.078 C 
ATOM      8  C   UNL     1     119.761 159.055 109.284  1.00  0.00     0.026 A 
ATOM      9  C   UNL     1     119.294 157.817 109.762  1.00  0.00     0.033 A 
ATOM     10  C   UNL     1     118.468 157.764 110.879  1.00  0.00     0.041 A 
ATOM     11  Cl  UNL     1     117.888 156.250 111.448  1.00  0.00    -0.084 Cl
ATOM     12  C   UNL     1     118.102 158.936 111.529  1.00  0.00     0.023 A 
ATOM     13  C   UNL     1     118.584 160.165 111.072  1.00  0.00     0.028 A 
ATOM     14  C   UNL     1     119.445 160.252 109.961  1.00  0.00     0.053 A 
ENDROOT
BRANCH   5  15
ATOM     15  O   UNL     1     123.493 160.901 108.701  1.00  0.00    -0.364 OA
ATOM     16  H   UNL     1     123.408 161.843 108.465  1.00  0.00     0.213 HD
ENDBRANCH   5  15
BRANCH   7  17
ATOM     17  C   UNL     1     120.014 158.231 106.858  1.00  0.00     0.000 A 
ATOM     18  C   UNL     1     120.704 158.260 105.639  1.00  0.00     0.010 A 
ATOM     19  C   UNL     1     118.837 157.481 106.972  1.00  0.00     0.010 A 
ATOM     20  C   UNL     1     120.235 157.522 104.552  1.00  0.00     0.001 A 
ATOM     21  C   UNL     1     118.372 156.743 105.881  1.00  0.00     0.001 A 
ATOM     22  C   UNL     1     119.072 156.761 104.675  1.00  0.00     0.000 A 
ENDBRANCH   7  17
TORSDOF 2
ENDMDL
MODEL 4
REMARK VINA RESULT:    -7.832      3.175      5.747
REMARK INTER + INTRA:          -8.910
REMARK INTER:                  -9.025
REMARK INTRA:                   0.114
REMARK UNBOUND:                -0.391
REMARK SMILES CN1C(=O)C(O)N=C(c2ccccc2)c2cc(Cl)ccc21
REMARK SMILES IDX 1 1 2 2 3 3 4 4 5 5 7 6 8 7 15 8 16 9 17 10 18 11 19 12
REMARK SMILES IDX 20 13 21 14 6 15 9 17 10 18 14 19 11 20 13 21 12 22
REMARK H PARENT 6 16
ROOT
ATOM      1  C   UNL     1     114.797 156.076 108.969  1.00  0.00     0.153 C 
ATOM      2  N   UNL     1     116.160 156.253 109.457  1.00  0.00    -0.311 N 
ATOM      3  C   UNL     1     116.366 156.103 110.835  1.00  0.00     0.278 C 
ATOM      4  O   UNL     1     115.432 155.959 111.632  1.00  0.00    -0.269 OA
ATOM      5  C   UNL     1     117.842 156.065 111.325  1.00  0.00     0.323 C 
ATOM      6  N   UNL     1     118.333 157.433 111.276  1.00  0.00    -0.243 NA
ATOM      7  C   UNL     1     118.545 157.957 110.116  1.00  0.00     0.078 C 
ATOM      8  C   UNL     1     118.371 157.232 108.821  1.00  0.00     0.026 A 
ATOM      9  C   UNL     1     119.405 157.367 107.875  1.00  0.00     0.033 A 
ATOM     10  C   UNL     1     119.267 156.816 106.606  1.00  0.00     0.041 A 
ATOM     11  Cl  UNL     1     120.526 156.998 105.450  1.00  0.00    -0.084 Cl
ATOM     12  C   UNL     1     118.109 156.128 106.267  1.00  0.00     0.023 A 
ATOM     13  C   UNL     1     117.091 155.971 107.212  1.00  0.00     0.028 A 
ATOM     14  C   UNL     1     117.209 156.492 108.515  1.00  0.00     0.053 A 
ENDROOT
BRANCH   5  15
ATOM     15  O   UNL     1     117.914 155.517 112.632  1.00  0.00    -0.364 OA
ATOM     16  H   UNL     1     118.444 154.708 112.510  1.00  0.00     0.213 HD
ENDBRANCH   5  15
BRANCH   7  17
ATOM     17  C   UNL     1     118.998 159.385 110.085  1.00  0.00     0.000 A 
ATOM     18  C   UNL     1     118.226 160.356 110.735  1.00  0.00     0.010 A 
ATOM     19  C   UNL     1     120.158 159.765 109.398  1.00  0.00     0.010 A 
ATOM     20  C   UNL     1     118.626 161.692 110.721  1.00  0.00     0.001 A 
ATOM     21  C   UNL     1     120.554 161.104 109.387  1.00  0.00     0.001 A 
ATOM     22  C   UNL     1     119.791 162.065 110.050  1.00  0.00     0.000 A 
ENDBRANCH   7  17
TORSDOF 2
ENDMDL
MODEL 5
REMARK VINA RESULT:    -7.365      3.383      5.888
REMARK INTER + INTRA:          -8.402
REMARK INTER:                  -8.566
REMARK INTRA:                   0.164
REMARK UNBOUND:                -0.391
REMARK SMILES CN1C(=O)C(O)N=C(c2ccccc2)c2cc(Cl)ccc21
REMARK SMILES IDX 1 1 2 2 3 3 4 4 5 5 7 6 8 7 15 8 16 9 17 10 18 11 19 12
REMARK SMILES IDX 20 13 21 14 6 15 9 17 10 18 14 19 11 20 13 21 12 22
REMARK H PARENT 6 16
ROOT
ATOM      1  C   UNL     1     115.621 158.068 108.695  1.00  0.00     0.153 C 
ATOM      2  N   UNL     1     117.032 157.882 109.011  1.00  0.00    -0.311 N 
ATOM      3  C   UNL     1     117.386 157.888 110.366  1.00  0.00     0.278 C 
ATOM      4  O   UNL     1     116.580 158.169 111.260  1.00  0.00    -0.269 OA
ATOM      5  C   UNL     1     118.843 157.465 110.715  1.00  0.00     0.323 C 
ATOM      6  N   UNL     1     119.699 158.586 110.359  1.00  0.00    -0.243 NA
ATOM      7  C   UNL     1     119.882 158.833 109.106  1.00  0.00     0.078 C 
ATOM      8  C   UNL     1     119.314 158.009 107.995  1.00  0.00     0.026 A 
ATOM      9  C   UNL     1     120.191 157.666 106.949  1.00  0.00     0.033 A 
ATOM     10  C   UNL     1     119.713 156.998 105.827  1.00  0.00     0.041 A 
ATOM     11  Cl  UNL     1     120.785 156.597 104.546  1.00  0.00    -0.084 Cl
ATOM     12  C   UNL     1     118.368 156.665 105.735  1.00  0.00     0.023 A 
ATOM     13  C   UNL     1     117.500 156.981 106.784  1.00  0.00     0.028 A 
ATOM     14  C   UNL     1     117.955 157.633 107.947  1.00  0.00     0.053 A 
ENDROOT
BRANCH   5  15
ATOM     15  O   UNL     1     118.943 157.129 112.090  1.00  0.00    -0.364 OA
ATOM     16  H   UNL     1     119.408 157.894 112.477  1.00  0.00     0.213 HD
ENDBRANCH   5  15
BRANCH   7  17
ATOM     17  C   UNL     1     120.722 160.024 108.761  1.00  0.00     0.000 A 
ATOM     18  C   UNL     1     121.835 159.850 107.930  1.00  0.00     0.010 A 
ATOM     19  C   UNL     1     120.431 161.294 109.276  1.00  0.00     0.010 A 
ATOM     20  C   UNL     1     122.635 160.943 107.593  1.00  0.00     0.001 A 
ATOM     21  C   UNL     1     121.233 162.385 108.935  1.00  0.00     0.001 A 
ATOM     22  C   UNL     1     122.331 162.210 108.092  1.00  0.00     0.000 A 
ENDBRANCH   7  17
TORSDOF 2
ENDMDL
MODEL 6
REMARK VINA RESULT:    -7.285      3.330      4.874
REMARK INTER + INTRA:          -8.315
REMARK INTER:                  -8.334
REMARK INTRA:                   0.019
REMARK UNBOUND:                -0.391
REMARK SMILES CN1C(=O)C(O)N=C(c2ccccc2)c2cc(Cl)ccc21
REMARK SMILES IDX 1 1 2 2 3 3 4 4 5 5 7 6 8 7 15 8 16 9 17 10 18 11 19 12
REMARK SMILES IDX 20 13 21 14 6 15 9 17 10 18 14 19 11 20 13 21 12 22
REMARK H PARENT 6 16
ROOT
ATOM      1  C   UNL     1     117.891 155.643 113.005  1.00  0.00     0.153 C 
ATOM      2  N   UNL     1     117.633 156.310 111.734  1.00  0.00    -0.311 N 
ATOM      3  C   UNL     1     117.471 155.492 110.608  1.00  0.00     0.278 C 
ATOM      4  O   UNL     1     117.664 154.271 110.644  1.00  0.00    -0.269 OA
ATOM      5  C   UNL     1     116.973 156.180 109.304  1.00  0.00     0.323 C 
ATOM      6  N   UNL     1     118.106 156.912 108.761  1.00  0.00    -0.243 NA
ATOM      7  C   UNL     1     118.495 157.973 109.383  1.00  0.00     0.078 C 
ATOM      8  C   UNL     1     117.822 158.530 110.597  1.00  0.00     0.026 A 
ATOM      9  C   UNL     1     117.584 159.917 110.610  1.00  0.00     0.033 A 
ATOM     10  C   UNL     1     117.065 160.527 111.746  1.00  0.00     0.041 A 
ATOM     11  Cl  UNL     1     116.791 162.223 111.761  1.00  0.00    -0.084 Cl
ATOM     12  C   UNL     1     116.779 159.769 112.874  1.00  0.00     0.023 A 
ATOM     13  C   UNL     1     116.991 158.387 112.857  1.00  0.00     0.028 A 
ATOM     14  C   UNL     1     117.489 157.733 111.713  1.00  0.00     0.053 A 
ENDROOT
BRANCH   5  15
ATOM     15  O   UNL     1     116.475 155.212 108.394  1.00  0.00    -0.364 OA
ATOM     16  H   UNL     1     116.045 154.556 108.973  1.00  0.00     0.213 HD
ENDBRANCH   5  15
BRANCH   7  17
ATOM     17  C   UNL     1     119.697 158.682 108.839  1.00  0.00     0.000 A 
ATOM     18  C   UNL     1     120.188 158.317 107.580  1.00  0.00     0.010 A 
ATOM     19  C   UNL     1     120.350 159.678 109.577  1.00  0.00     0.010 A 
ATOM     20  C   UNL     1     121.306 158.961 107.050  1.00  0.00     0.001 A 
ATOM     21  C   UNL     1     121.469 160.321 109.042  1.00  0.00     0.001 A 
ATOM     22  C   UNL     1     121.943 159.965 107.780  1.00  0.00     0.000 A 
ENDBRANCH   7  17
TORSDOF 2
ENDMDL
MODEL 7
REMARK VINA RESULT:    -7.149      4.328      5.760
REMARK INTER + INTRA:          -8.167
REMARK INTER:                  -8.466
REMARK INTRA:                   0.299
REMARK UNBOUND:                -0.391
REMARK SMILES CN1C(=O)C(O)N=C(c2ccccc2)c2cc(Cl)ccc21
REMARK SMILES IDX 1 1 2 2 3 3 4 4 5 5 7 6 8 7 15 8 16 9 17 10 18 11 19 12
REMARK SMILES IDX 20 13 21 14 6 15 9 17 10 18 14 19 11 20 13 21 12 22
REMARK H PARENT 6 16
ROOT
ATOM      1  C   UNL     1     116.703 157.253 117.286  1.00  0.00     0.153 C 
ATOM      2  N   UNL     1     116.197 157.311 115.920  1.00  0.00    -0.311 N 
ATOM      3  C   UNL     1     116.068 156.095 115.237  1.00  0.00     0.278 C 
ATOM      4  O   UNL     1     116.482 155.027 115.703  1.00  0.00    -0.269 OA
ATOM      5  C   UNL     1     115.320 156.129 113.873  1.00  0.00     0.323 C 
ATOM      6  N   UNL     1     116.238 156.715 112.908  1.00  0.00    -0.243 NA
ATOM      7  C   UNL     1     116.491 157.976 113.003  1.00  0.00     0.078 C 
ATOM      8  C   UNL     1     115.860 158.887 114.007  1.00  0.00     0.026 A 
ATOM      9  C   UNL     1     115.377 160.119 113.529  1.00  0.00     0.033 A 
ATOM     10  C   UNL     1     114.879 161.067 114.416  1.00  0.00     0.041 A 
ATOM     11  Cl  UNL     1     114.305 162.576 113.827  1.00  0.00    -0.084 Cl
ATOM     12  C   UNL     1     114.855 160.800 115.778  1.00  0.00     0.023 A 
ATOM     13  C   UNL     1     115.310 159.567 116.255  1.00  0.00     0.028 A 
ATOM     14  C   UNL     1     115.795 158.574 115.381  1.00  0.00     0.053 A 
ENDROOT
BRANCH   5  15
ATOM     15  O   UNL     1     114.912 154.823 113.500  1.00  0.00    -0.364 OA
ATOM     16  H   UNL     1     115.326 154.254 114.175  1.00  0.00     0.213 HD
ENDBRANCH   5  15
BRANCH   7  17
ATOM     17  C   UNL     1     117.481 158.548 112.036  1.00  0.00     0.000 A 
ATOM     18  C   UNL     1     118.405 157.692 111.425  1.00  0.00     0.010 A 
ATOM     19  C   UNL     1     117.515 159.921 111.756  1.00  0.00     0.010 A 
ATOM     20  C   UNL     1     119.338 158.200 110.520  1.00  0.00     0.001 A 
ATOM     21  C   UNL     1     118.450 160.424 110.849  1.00  0.00     0.001 A 
ATOM     22  C   UNL     1     119.357 159.564 110.230  1.00  0.00     0.000 A 
ENDBRANCH   7  17
TORSDOF 2
ENDMDL
MODEL 8
REMARK VINA RESULT:    -6.996      4.763      6.910
REMARK INTER + INTRA:          -8.001
REMARK INTER:                  -7.572
REMARK INTRA:                  -0.429
REMARK UNBOUND:                -0.391
REMARK SMILES CN1C(=O)C(O)N=C(c2ccccc2)c2cc(Cl)ccc21
REMARK SMILES IDX 1 1 2 2 3 3 4 4 5 5 7 6 8 7 15 8 16 9 17 10 18 11 19 12
REMARK SMILES IDX 20 13 21 14 6 15 9 17 10 18 14 19 11 20 13 21 12 22
REMARK H PARENT 6 16
ROOT
ATOM      1  C   UNL     1     116.238 154.838 117.559  1.00  0.00     0.153 C 
ATOM      2  N   UNL     1     116.567 156.153 117.021  1.00  0.00    -0.311 N 
ATOM      3  C   UNL     1     116.786 157.182 117.947  1.00  0.00     0.278 C 
ATOM      4  O   UNL     1     116.586 157.036 119.158  1.00  0.00    -0.269 OA
ATOM      5  C   UNL     1     117.356 158.518 117.392  1.00  0.00     0.323 C 
ATOM      6  N   UNL     1     116.258 159.192 116.717  1.00  0.00    -0.243 NA
ATOM      7  C   UNL     1     115.841 158.700 115.600  1.00  0.00     0.078 C 
ATOM      8  C   UNL     1     116.450 157.513 114.925  1.00  0.00     0.026 A 
ATOM      9  C   UNL     1     116.694 157.624 113.544  1.00  0.00     0.033 A 
ATOM     10  C   UNL     1     117.154 156.528 112.824  1.00  0.00     0.041 A 
ATOM     11  Cl  UNL     1     117.434 156.666 111.134  1.00  0.00    -0.084 Cl
ATOM     12  C   UNL     1     117.375 155.316 113.466  1.00  0.00     0.023 A 
ATOM     13  C   UNL     1     117.158 155.209 114.843  1.00  0.00     0.028 A 
ATOM     14  C   UNL     1     116.720 156.307 115.608  1.00  0.00     0.053 A 
ENDROOT
BRANCH   5  15
ATOM     15  O   UNL     1     117.899 159.300 118.445  1.00  0.00    -0.364 OA
ATOM     16  H   UNL     1     118.840 159.380 118.206  1.00  0.00     0.213 HD
ENDBRANCH   5  15
BRANCH   7  17
ATOM     17  C   UNL     1     114.674 159.376 114.949  1.00  0.00     0.000 A 
ATOM     18  C   UNL     1     113.395 158.830 115.115  1.00  0.00     0.010 A 
ATOM     19  C   UNL     1     114.843 160.520 114.159  1.00  0.00     0.010 A 
ATOM     20  C   UNL     1     112.291 159.440 114.519  1.00  0.00     0.001 A 
ATOM     21  C   UNL     1     113.735 161.127 113.565  1.00  0.00     0.001 A 
ATOM     22  C   UNL     1     112.461 160.590 113.748  1.00  0.00     0.000 A 
ENDBRANCH   7  17
TORSDOF 2
ENDMDL
MODEL 9
REMARK VINA RESULT:    -6.914      4.053      5.658
REMARK INTER + INTRA:          -7.912
REMARK INTER:                  -7.472
REMARK INTRA:                  -0.440
REMARK UNBOUND:                -0.391
REMARK SMILES CN1C(=O)C(O)N=C(c2ccccc2)c2cc(Cl)ccc21
REMARK SMILES IDX 1 1 2 2 3 3 4 4 5 5 7 6 8 7 15 8 16 9 17 10 18 11 19 12
REMARK SMILES IDX 20 13 21 14 6 15 9 17 10 18 14 19 11 20 13 21 12 22
REMARK H PARENT 6 16
ROOT
ATOM      1  C   UNL     1     113.982 160.155 117.288  1.00  0.00     0.153 C 
ATOM      2  N   UNL     1     114.980 159.168 116.893  1.00  0.00    -0.311 N 
ATOM      3  C   UNL     1     116.282 159.352 117.378  1.00  0.00     0.278 C 
ATOM      4  O   UNL     1     116.619 160.365 118.000  1.00  0.00    -0.269 OA
ATOM      5  C   UNL     1     117.289 158.188 117.149  1.00  0.00     0.323 C 
ATOM      6  N   UNL     1     117.672 158.237 115.747  1.00  0.00    -0.243 NA
ATOM      7  C   UNL     1     116.795 157.887 114.868  1.00  0.00     0.078 C 
ATOM      8  C   UNL     1     115.427 157.382 115.200  1.00  0.00     0.026 A 
ATOM      9  C   UNL     1     114.992 156.233 114.514  1.00  0.00     0.033 A 
ATOM     10  C   UNL     1     113.693 155.767 114.684  1.00  0.00     0.041 A 
ATOM     11  Cl  UNL     1     113.163 154.373 113.830  1.00  0.00    -0.084 Cl
ATOM     12  C   UNL     1     112.820 156.434 115.533  1.00  0.00     0.023 A 
ATOM     13  C   UNL     1     113.256 157.561 116.235  1.00  0.00     0.028 A 
ATOM     14  C   UNL     1     114.573 158.044 116.108  1.00  0.00     0.053 A 
ENDROOT
BRANCH   5  15
ATOM     15  O   UNL     1     118.405 158.323 118.014  1.00  0.00    -0.364 OA
ATOM     16  H   UNL     1     118.111 157.887 118.835  1.00  0.00     0.213 HD
ENDBRANCH   5  15
BRANCH   7  17
ATOM     17  C   UNL     1     117.190 157.997 113.427  1.00  0.00     0.000 A 
ATOM     18  C   UNL     1     116.758 159.106 112.688  1.00  0.00     0.010 A 
ATOM     19  C   UNL     1     117.954 157.002 112.805  1.00  0.00     0.010 A 
ATOM     20  C   UNL     1     117.112 159.232 111.345  1.00  0.00     0.001 A 
ATOM     21  C   UNL     1     118.307 157.134 111.460  1.00  0.00     0.001 A 
ATOM     22  C   UNL     1     117.889 158.248 110.732  1.00  0.00     0.000 A 
ENDBRANCH   7  17
TORSDOF 2
ENDMDL
