MODEL 1
REMARK VINA RESULT:    -8.496      0.000      0.000
REMARK INTER + INTRA:          -9.571
REMARK INTER:                  -9.241
REMARK INTRA:                  -0.330
REMARK UNBOUND:                -0.330
REMARK SMILES O=C1Nc2ccc(Cl)cc2C(c2ccccc2Cl)=NC1O
REMARK SMILES IDX 1 1 2 2 3 3 4 4 5 5 6 6 7 7 8 8 9 9 10 10 11 11 19 12 20 13
REMARK SMILES IDX 21 15 12 17 13 18 17 19 14 20 16 21 15 22 18 23
REMARK H PARENT 3 14 21 16
ROOT
ATOM      1  O   UNL     1     115.630 155.737 114.008  1.00  0.00    -0.269 OA
ATOM      2  C   UNL     1     116.360 156.517 113.391  1.00  0.00     0.276 C 
ATOM      3  N   UNL     1     115.898 157.780 113.116  1.00  0.00    -0.321 N 
ATOM      4  C   UNL     1     116.566 158.803 112.429  1.00  0.00     0.050 A 
ATOM      5  C   UNL     1     116.153 160.111 112.729  1.00  0.00     0.028 A 
ATOM      6  C   UNL     1     116.787 161.212 112.150  1.00  0.00     0.023 A 
ATOM      7  C   UNL     1     117.829 161.012 111.253  1.00  0.00     0.041 A 
ATOM      8  Cl  UNL     1     118.616 162.365 110.542  1.00  0.00    -0.084 Cl
ATOM      9  C   UNL     1     118.222 159.722 110.907  1.00  0.00     0.033 A 
ATOM     10  C   UNL     1     117.580 158.608 111.475  1.00  0.00     0.026 A 
ATOM     11  C   UNL     1     117.893 157.257 110.919  1.00  0.00     0.079 C 
ATOM     12  N   UNL     1     117.963 156.153 111.577  1.00  0.00    -0.243 NA
ATOM     13  C   UNL     1     117.821 156.173 113.025  1.00  0.00     0.323 C 
ATOM     14  H   UNL     1     115.015 157.982 113.567  1.00  0.00     0.170 HD
ENDROOT
BRANCH  13  15
ATOM     15  O   UNL     1     118.755 156.985 113.725  1.00  0.00    -0.364 OA
ATOM     16  H   UNL     1     118.233 157.701 114.122  1.00  0.00     0.213 HD
ENDBRANCH  13  15
BRANCH  11  17
ATOM     17  C   UNL     1     118.077 157.152 109.447  1.00  0.00     0.019 A 
ATOM     18  C   UNL     1     119.340 157.461 108.923  1.00  0.00     0.012 A 
ATOM     19  C   UNL     1     117.031 156.781 108.596  1.00  0.00     0.050 A 
ATOM     20  C   UNL     1     119.555 157.391 107.547  1.00  0.00     0.001 A 
ATOM     21  C   UNL     1     117.256 156.713 107.219  1.00  0.00     0.021 A 
ATOM     22  C   UNL     1     118.515 157.017 106.696  1.00  0.00     0.002 A 
ATOM     23  Cl  UNL     1     115.468 156.342 109.184  1.00  0.00    -0.084 Cl
ENDBRANCH  11  17
TORSDOF 2
ENDMDL
MODEL 2
REMARK VINA RESULT:    -8.282      1.540      1.995
REMARK INTER + INTRA:          -9.338
REMARK INTER:                  -9.247
REMARK INTRA:                  -0.092
REMARK UNBOUND:                -0.330
REMARK SMILES O=C1Nc2ccc(Cl)cc2C(c2ccccc2Cl)=NC1O
REMARK SMILES IDX 1 1 2 2 3 3 4 4 5 5 6 6 7 7 8 8 9 9 10 10 11 11 19 12 20 13
REMARK SMILES IDX 21 15 12 17 13 18 17 19 14 20 16 21 15 22 18 23
REMARK H PARENT 3 14 21 16
ROOT
ATOM      1  O   UNL     1     115.783 154.536 114.710  1.00  0.00    -0.269 OA
ATOM      2  C   UNL     1     116.277 155.502 114.121  1.00  0.00     0.276 C 
ATOM      3  N   UNL     1     115.559 156.669 114.043  1.00  0.00    -0.321 N 
ATOM      4  C   UNL     1     115.938 157.865 113.419  1.00  0.00     0.050 A 
ATOM      5  C   UNL     1     115.329 159.031 113.911  1.00  0.00     0.028 A 
ATOM      6  C   UNL     1     115.673 160.286 113.405  1.00  0.00     0.023 A 
ATOM      7  C   UNL     1     116.619 160.383 112.393  1.00  0.00     0.041 A 
ATOM      8  Cl  UNL     1     117.051 161.928 111.773  1.00  0.00    -0.084 Cl
ATOM      9  C   UNL     1     117.202 159.236 111.861  1.00  0.00     0.033 A 
ATOM     10  C   UNL     1     116.850 157.968 112.354  1.00  0.00     0.026 A 
ATOM     11  C   UNL     1     117.340 156.765 111.614  1.00  0.00     0.079 C 
ATOM     12  N   UNL     1     117.692 155.639 112.127  1.00  0.00    -0.243 NA
ATOM     13  C   UNL     1     117.723 155.490 113.575  1.00  0.00     0.323 C 
ATOM     14  H   UNL     1     114.714 156.648 114.599  1.00  0.00     0.170 HD
ENDROOT
BRANCH  13  15
ATOM     15  O   UNL     1     118.566 156.399 114.270  1.00  0.00    -0.364 OA
ATOM     16  H   UNL     1     119.100 156.835 113.587  1.00  0.00     0.213 HD
ENDBRANCH  13  15
BRANCH  11  17
ATOM     17  C   UNL     1     117.364 156.842 110.130  1.00  0.00     0.019 A 
ATOM     18  C   UNL     1     116.310 156.240 109.427  1.00  0.00     0.012 A 
ATOM     19  C   UNL     1     118.407 157.468 109.439  1.00  0.00     0.050 A 
ATOM     20  C   UNL     1     116.298 156.274 108.034  1.00  0.00     0.001 A 
ATOM     21  C   UNL     1     118.386 157.498 108.042  1.00  0.00     0.021 A 
ATOM     22  C   UNL     1     117.334 156.902 107.342  1.00  0.00     0.002 A 
ATOM     23  Cl  UNL     1     119.707 158.267 110.246  1.00  0.00    -0.084 Cl
ENDBRANCH  11  17
TORSDOF 2
ENDMDL
MODEL 3
REMARK VINA RESULT:    -7.798      1.263      1.562
REMARK INTER + INTRA:          -8.812
REMARK INTER:                  -8.385
REMARK INTRA:                  -0.427
REMARK UNBOUND:                -0.330
REMARK SMILES O=C1Nc2ccc(Cl)cc2C(c2ccccc2Cl)=NC1O
REMARK SMILES IDX 1 1 2 2 3 3 4 4 5 5 6 6 7 7 8 8 9 9 10 10 11 11 19 12 20 13
REMARK SMILES IDX 21 15 12 17 13 18 17 19 14 20 16 21 15 22 18 23
REMARK H PARENT 3 14 21 16
ROOT
ATOM      1  O   UNL     1     115.767 155.063 114.855  1.00  0.00    -0.269 OA
ATOM      2  C   UNL     1     116.257 156.092 114.382  1.00  0.00     0.276 C 
ATOM      3  N   UNL     1     115.430 157.150 114.099  1.00  0.00    -0.321 N 
ATOM      4  C   UNL     1     115.786 158.393 113.557  1.00  0.00     0.050 A 
ATOM      5  C   UNL     1     114.922 159.459 113.852  1.00  0.00     0.028 A 
ATOM      6  C   UNL     1     115.207 160.754 113.415  1.00  0.00     0.023 A 
ATOM      7  C   UNL     1     116.354 160.989 112.667  1.00  0.00     0.041 A 
ATOM      8  Cl  UNL     1     116.712 162.584 112.133  1.00  0.00    -0.084 Cl
ATOM      9  C   UNL     1     117.200 159.938 112.325  1.00  0.00     0.033 A 
ATOM     10  C   UNL     1     116.912 158.629 112.748  1.00  0.00     0.026 A 
ATOM     11  C   UNL     1     117.729 157.512 112.185  1.00  0.00     0.079 C 
ATOM     12  N   UNL     1     118.091 156.440 112.798  1.00  0.00    -0.243 NA
ATOM     13  C   UNL     1     117.781 156.284 114.211  1.00  0.00     0.323 C 
ATOM     14  H   UNL     1     114.484 157.008 114.429  1.00  0.00     0.170 HD
ENDROOT
BRANCH  13  15
ATOM     15  O   UNL     1     118.293 157.295 115.069  1.00  0.00    -0.364 OA
ATOM     16  H   UNL     1     118.418 158.077 114.508  1.00  0.00     0.213 HD
ENDBRANCH  13  15
BRANCH  11  17
ATOM     17  C   UNL     1     118.110 157.603 110.750  1.00  0.00     0.019 A 
ATOM     18  C   UNL     1     119.299 158.275 110.432  1.00  0.00     0.012 A 
ATOM     19  C   UNL     1     117.310 157.064 109.737  1.00  0.00     0.050 A 
ATOM     20  C   UNL     1     119.690 158.398 109.100  1.00  0.00     0.001 A 
ATOM     21  C   UNL     1     117.710 157.193 108.404  1.00  0.00     0.021 A 
ATOM     22  C   UNL     1     118.897 157.858 108.087  1.00  0.00     0.002 A 
ATOM     23  Cl  UNL     1     115.861 156.186 110.067  1.00  0.00    -0.084 Cl
ENDBRANCH  11  17
TORSDOF 2
ENDMDL
MODEL 4
REMARK VINA RESULT:    -7.781      2.995      5.188
REMARK INTER + INTRA:          -8.793
REMARK INTER:                  -9.302
REMARK INTRA:                   0.509
REMARK UNBOUND:                -0.330
REMARK SMILES O=C1Nc2ccc(Cl)cc2C(c2ccccc2Cl)=NC1O
REMARK SMILES IDX 1 1 2 2 3 3 4 4 5 5 6 6 7 7 8 8 9 9 10 10 11 11 19 12 20 13
REMARK SMILES IDX 21 15 12 17 13 18 17 19 14 20 16 21 15 22 18 23
REMARK H PARENT 3 14 21 16
ROOT
ATOM      1  O   UNL     1     118.150 157.614 112.819  1.00  0.00    -0.269 OA
ATOM      2  C   UNL     1     118.229 157.898 111.620  1.00  0.00     0.276 C 
ATOM      3  N   UNL     1     118.550 156.909 110.725  1.00  0.00    -0.321 N 
ATOM      4  C   UNL     1     118.694 157.028 109.335  1.00  0.00     0.050 A 
ATOM      5  C   UNL     1     118.489 155.851 108.597  1.00  0.00     0.028 A 
ATOM      6  C   UNL     1     118.549 155.863 107.202  1.00  0.00     0.023 A 
ATOM      7  C   UNL     1     118.827 157.049 106.536  1.00  0.00     0.041 A 
ATOM      8  Cl  UNL     1     118.894 157.069 104.818  1.00  0.00    -0.084 Cl
ATOM      9  C   UNL     1     119.078 158.217 107.252  1.00  0.00     0.033 A 
ATOM     10  C   UNL     1     119.035 158.211 108.657  1.00  0.00     0.026 A 
ATOM     11  C   UNL     1     119.513 159.428 109.380  1.00  0.00     0.079 C 
ATOM     12  N   UNL     1     119.039 159.906 110.476  1.00  0.00    -0.243 NA
ATOM     13  C   UNL     1     117.859 159.295 111.072  1.00  0.00     0.323 C 
ATOM     14  H   UNL     1     118.576 155.990 111.147  1.00  0.00     0.170 HD
ENDROOT
BRANCH  13  15
ATOM     15  O   UNL     1     116.701 159.259 110.249  1.00  0.00    -0.364 OA
ATOM     16  H   UNL     1     116.511 160.184 110.025  1.00  0.00     0.213 HD
ENDBRANCH  13  15
BRANCH  11  17
ATOM     17  C   UNL     1     120.701 160.128 108.824  1.00  0.00     0.019 A 
ATOM     18  C   UNL     1     121.645 159.361 108.127  1.00  0.00     0.012 A 
ATOM     19  C   UNL     1     120.898 161.502 109.000  1.00  0.00     0.050 A 
ATOM     20  C   UNL     1     122.782 159.972 107.600  1.00  0.00     0.001 A 
ATOM     21  C   UNL     1     122.040 162.106 108.467  1.00  0.00     0.021 A 
ATOM     22  C   UNL     1     122.980 161.342 107.770  1.00  0.00     0.002 A 
ATOM     23  Cl  UNL     1     119.751 162.509 109.806  1.00  0.00    -0.084 Cl
ENDBRANCH  11  17
TORSDOF 2
ENDMDL
MODEL 5
REMARK VINA RESULT:    -7.656      3.505      6.475
REMARK INTER + INTRA:          -8.657
REMARK INTER:                  -9.126
REMARK INTRA:                   0.469
REMARK UNBOUND:                -0.330
REMARK SMILES O=C1Nc2ccc(Cl)cc2C(c2ccccc2Cl)=NC1O
REMARK SMILES IDX 1 1 2 2 3 3 4 4 5 5 6 6 7 7 8 8 9 9 10 10 11 11 19 12 20 13
REMARK SMILES IDX 21 15 12 17 13 18 17 19 14 20 16 21 15 22 18 23
REMARK H PARENT 3 14 21 16
ROOT
ATOM      1  O   UNL     1     121.611 161.776 106.759  1.00  0.00    -0.269 OA
ATOM      2  C   UNL     1     121.212 160.685 107.175  1.00  0.00     0.276 C 
ATOM      3  N   UNL     1     120.240 160.022 106.471  1.00  0.00    -0.321 N 
ATOM      4  C   UNL     1     119.654 158.786 106.778  1.00  0.00     0.050 A 
ATOM      5  C   UNL     1     119.115 158.078 105.692  1.00  0.00     0.028 A 
ATOM      6  C   UNL     1     118.559 156.810 105.869  1.00  0.00     0.023 A 
ATOM      7  C   UNL     1     118.525 156.246 107.138  1.00  0.00     0.041 A 
ATOM      8  Cl  UNL     1     117.847 154.681 107.359  1.00  0.00    -0.084 Cl
ATOM      9  C   UNL     1     119.012 156.951 108.236  1.00  0.00     0.033 A 
ATOM     10  C   UNL     1     119.560 158.234 108.068  1.00  0.00     0.026 A 
ATOM     11  C   UNL     1     119.876 159.030 109.293  1.00  0.00     0.079 C 
ATOM     12  N   UNL     1     120.860 159.843 109.448  1.00  0.00    -0.243 NA
ATOM     13  C   UNL     1     121.852 159.976 108.391  1.00  0.00     0.323 C 
ATOM     14  H   UNL     1     120.025 160.463 105.586  1.00  0.00     0.170 HD
ENDROOT
BRANCH  13  15
ATOM     15  O   UNL     1     122.523 158.779 108.021  1.00  0.00    -0.364 OA
ATOM     16  H   UNL     1     122.258 158.603 107.104  1.00  0.00     0.213 HD
ENDBRANCH  13  15
BRANCH  11  17
ATOM     17  C   UNL     1     118.924 158.932 110.432  1.00  0.00     0.019 A 
ATOM     18  C   UNL     1     118.639 157.657 110.938  1.00  0.00     0.012 A 
ATOM     19  C   UNL     1     118.307 160.063 110.977  1.00  0.00     0.050 A 
ATOM     20  C   UNL     1     117.742 157.515 111.996  1.00  0.00     0.001 A 
ATOM     21  C   UNL     1     117.410 159.912 112.037  1.00  0.00     0.021 A 
ATOM     22  C   UNL     1     117.128 158.641 112.545  1.00  0.00     0.002 A 
ATOM     23  Cl  UNL     1     118.651 161.664 110.430  1.00  0.00    -0.084 Cl
ENDBRANCH  11  17
TORSDOF 2
ENDMDL
MODEL 6
REMARK VINA RESULT:    -7.538      2.649      4.982
REMARK INTER + INTRA:          -8.529
REMARK INTER:                  -8.152
REMARK INTRA:                  -0.377
REMARK UNBOUND:                -0.330
REMARK SMILES O=C1Nc2ccc(Cl)cc2C(c2ccccc2Cl)=NC1O
REMARK SMILES IDX 1 1 2 2 3 3 4 4 5 5 6 6 7 7 8 8 9 9 10 10 11 11 19 12 20 13
REMARK SMILES IDX 21 15 12 17 13 18 17 19 14 20 16 21 15 22 18 23
REMARK H PARENT 3 14 21 16
ROOT
ATOM      1  O   UNL     1     119.007 155.654 108.088  1.00  0.00    -0.269 OA
ATOM      2  C   UNL     1     118.305 156.342 108.834  1.00  0.00     0.276 C 
ATOM      3  N   UNL     1     118.857 157.450 109.427  1.00  0.00    -0.321 N 
ATOM      4  C   UNL     1     118.234 158.350 110.303  1.00  0.00     0.050 A 
ATOM      5  C   UNL     1     118.785 159.641 110.346  1.00  0.00     0.028 A 
ATOM      6  C   UNL     1     118.212 160.637 111.138  1.00  0.00     0.023 A 
ATOM      7  C   UNL     1     117.091 160.346 111.904  1.00  0.00     0.041 A 
ATOM      8  Cl  UNL     1     116.378 161.573 112.876  1.00  0.00    -0.084 Cl
ATOM      9  C   UNL     1     116.557 159.060 111.911  1.00  0.00     0.033 A 
ATOM     10  C   UNL     1     117.137 158.047 111.128  1.00  0.00     0.026 A 
ATOM     11  C   UNL     1     116.661 156.644 111.327  1.00  0.00     0.079 C 
ATOM     12  N   UNL     1     116.542 155.738 110.422  1.00  0.00    -0.243 NA
ATOM     13  C   UNL     1     116.795 156.079 109.030  1.00  0.00     0.323 C 
ATOM     14  H   UNL     1     119.787 157.657 109.085  1.00  0.00     0.170 HD
ENDROOT
BRANCH  13  15
ATOM     15  O   UNL     1     115.995 157.126 108.496  1.00  0.00    -0.364 OA
ATOM     16  H   UNL     1     116.173 157.901 109.053  1.00  0.00     0.213 HD
ENDBRANCH  13  15
BRANCH  11  17
ATOM     17  C   UNL     1     116.356 156.220 112.719  1.00  0.00     0.019 A 
ATOM     18  C   UNL     1     115.067 155.740 112.989  1.00  0.00     0.012 A 
ATOM     19  C   UNL     1     117.305 156.312 113.744  1.00  0.00     0.050 A 
ATOM     20  C   UNL     1     114.732 155.345 114.283  1.00  0.00     0.001 A 
ATOM     21  C   UNL     1     116.959 155.913 115.037  1.00  0.00     0.021 A 
ATOM     22  C   UNL     1     115.676 155.431 115.306  1.00  0.00     0.002 A 
ATOM     23  Cl  UNL     1     118.922 156.849 113.467  1.00  0.00    -0.084 Cl
ENDBRANCH  11  17
TORSDOF 2
ENDMDL
MODEL 7
REMARK VINA RESULT:    -6.945      3.087      5.968
REMARK INTER + INTRA:          -7.883
REMARK INTER:                  -7.314
REMARK INTRA:                  -0.570
REMARK UNBOUND:                -0.330
REMARK SMILES O=C1Nc2ccc(Cl)cc2C(c2ccccc2Cl)=NC1O
REMARK SMILES IDX 1 1 2 2 3 3 4 4 5 5 6 6 7 7 8 8 9 9 10 10 11 11 19 12 20 13
REMARK SMILES IDX 21 15 12 17 13 18 17 19 14 20 16 21 15 22 18 23
REMARK H PARENT 3 14 21 16
ROOT
ATOM      1  O   UNL     1     117.462 153.681 114.611  1.00  0.00    -0.269 OA
ATOM      2  C   UNL     1     117.030 154.778 114.246  1.00  0.00     0.276 C 
ATOM      3  N   UNL     1     117.895 155.672 113.667  1.00  0.00    -0.321 N 
ATOM      4  C   UNL     1     117.605 156.960 113.195  1.00  0.00     0.050 A 
ATOM      5  C   UNL     1     118.462 157.452 112.198  1.00  0.00     0.028 A 
ATOM      6  C   UNL     1     118.235 158.699 111.612  1.00  0.00     0.023 A 
ATOM      7  C   UNL     1     117.157 159.468 112.029  1.00  0.00     0.041 A 
ATOM      8  Cl  UNL     1     116.870 161.001 111.303  1.00  0.00    -0.084 Cl
ATOM      9  C   UNL     1     116.322 159.017 113.048  1.00  0.00     0.033 A 
ATOM     10  C   UNL     1     116.552 157.770 113.654  1.00  0.00     0.026 A 
ATOM     11  C   UNL     1     115.763 157.425 114.875  1.00  0.00     0.079 C 
ATOM     12  N   UNL     1     115.334 156.259 115.208  1.00  0.00    -0.243 NA
ATOM     13  C   UNL     1     115.528 155.139 114.300  1.00  0.00     0.323 C 
ATOM     14  H   UNL     1     118.810 155.276 113.491  1.00  0.00     0.170 HD
ENDROOT
BRANCH  13  15
ATOM     15  O   UNL     1     114.967 155.292 113.003  1.00  0.00    -0.364 OA
ATOM     16  H   UNL     1     115.521 155.951 112.554  1.00  0.00     0.213 HD
ENDBRANCH  13  15
BRANCH  11  17
ATOM     17  C   UNL     1     115.498 158.520 115.846  1.00  0.00     0.019 A 
ATOM     18  C   UNL     1     116.482 158.794 116.807  1.00  0.00     0.012 A 
ATOM     19  C   UNL     1     114.303 159.247 115.832  1.00  0.00     0.050 A 
ATOM     20  C   UNL     1     116.271 159.801 117.746  1.00  0.00     0.001 A 
ATOM     21  C   UNL     1     114.101 160.256 116.777  1.00  0.00     0.021 A 
ATOM     22  C   UNL     1     115.083 160.531 117.732  1.00  0.00     0.002 A 
ATOM     23  Cl  UNL     1     113.074 158.991 114.646  1.00  0.00    -0.084 Cl
ENDBRANCH  11  17
TORSDOF 2
ENDMDL
MODEL 8
REMARK VINA RESULT:    -6.817      4.007      5.381
REMARK INTER + INTRA:          -7.744
REMARK INTER:                  -7.148
REMARK INTRA:                  -0.596
REMARK UNBOUND:                -0.330
REMARK SMILES O=C1Nc2ccc(Cl)cc2C(c2ccccc2Cl)=NC1O
REMARK SMILES IDX 1 1 2 2 3 3 4 4 5 5 6 6 7 7 8 8 9 9 10 10 11 11 19 12 20 13
REMARK SMILES IDX 21 15 12 17 13 18 17 19 14 20 16 21 15 22 18 23
REMARK H PARENT 3 14 21 16
ROOT
ATOM      1  O   UNL     1     116.896 156.778 119.155  1.00  0.00    -0.269 OA
ATOM      2  C   UNL     1     116.426 157.413 118.207  1.00  0.00     0.276 C 
ATOM      3  N   UNL     1     115.097 157.262 117.903  1.00  0.00    -0.321 N 
ATOM      4  C   UNL     1     114.380 157.885 116.871  1.00  0.00     0.050 A 
ATOM      5  C   UNL     1     112.997 158.007 117.075  1.00  0.00     0.028 A 
ATOM      6  C   UNL     1     112.191 158.661 116.142  1.00  0.00     0.023 A 
ATOM      7  C   UNL     1     112.762 159.186 114.989  1.00  0.00     0.041 A 
ATOM      8  Cl  UNL     1     111.774 159.999 113.840  1.00  0.00    -0.084 Cl
ATOM      9  C   UNL     1     114.125 159.035 114.746  1.00  0.00     0.033 A 
ATOM     10  C   UNL     1     114.940 158.365 115.674  1.00  0.00     0.026 A 
ATOM     11  C   UNL     1     116.345 158.046 115.275  1.00  0.00     0.079 C 
ATOM     12  N   UNL     1     117.379 158.041 116.041  1.00  0.00    -0.243 NA
ATOM     13  C   UNL     1     117.245 158.465 117.426  1.00  0.00     0.323 C 
ATOM     14  H   UNL     1     114.597 156.711 118.588  1.00  0.00     0.170 HD
ENDROOT
BRANCH  13  15
ATOM     15  O   UNL     1     116.749 159.783 117.622  1.00  0.00    -0.364 OA
ATOM     16  H   UNL     1     116.227 159.748 118.440  1.00  0.00     0.213 HD
ENDBRANCH  13  15
BRANCH  11  17
ATOM     17  C   UNL     1     116.574 157.626 113.867  1.00  0.00     0.019 A 
ATOM     18  C   UNL     1     117.095 158.576 112.977  1.00  0.00     0.012 A 
ATOM     19  C   UNL     1     116.263 156.337 113.421  1.00  0.00     0.050 A 
ATOM     20  C   UNL     1     117.312 158.231 111.644  1.00  0.00     0.001 A 
ATOM     21  C   UNL     1     116.486 156.000 112.083  1.00  0.00     0.021 A 
ATOM     22  C   UNL     1     117.008 156.946 111.198  1.00  0.00     0.002 A 
ATOM     23  Cl  UNL     1     115.664 155.109 114.476  1.00  0.00    -0.084 Cl
ENDBRANCH  11  17
TORSDOF 2
ENDMDL
MODEL 9
REMARK VINA RESULT:    -6.372      5.221      7.178
REMARK INTER + INTRA:          -7.260
REMARK INTER:                  -6.719
REMARK INTRA:                  -0.541
REMARK UNBOUND:                -0.330
REMARK SMILES O=C1Nc2ccc(Cl)cc2C(c2ccccc2Cl)=NC1O
REMARK SMILES IDX 1 1 2 2 3 3 4 4 5 5 6 6 7 7 8 8 9 9 10 10 11 11 19 12 20 13
REMARK SMILES IDX 21 15 12 17 13 18 17 19 14 20 16 21 15 22 18 23
REMARK H PARENT 3 14 21 16
ROOT
ATOM      1  O   UNL     1     118.361 159.055 117.644  1.00  0.00    -0.269 OA
ATOM      2  C   UNL     1     117.332 158.502 117.246  1.00  0.00     0.276 C 
ATOM      3  N   UNL     1     117.414 157.630 116.190  1.00  0.00    -0.321 N 
ATOM      4  C   UNL     1     116.369 156.912 115.591  1.00  0.00     0.050 A 
ATOM      5  C   UNL     1     116.741 155.731 114.929  1.00  0.00     0.028 A 
ATOM      6  C   UNL     1     115.779 154.904 114.347  1.00  0.00     0.023 A 
ATOM      7  C   UNL     1     114.437 155.261 114.409  1.00  0.00     0.041 A 
ATOM      8  Cl  UNL     1     113.248 154.242 113.699  1.00  0.00    -0.084 Cl
ATOM      9  C   UNL     1     114.053 156.452 115.021  1.00  0.00     0.033 A 
ATOM     10  C   UNL     1     115.017 157.297 115.597  1.00  0.00     0.026 A 
ATOM     11  C   UNL     1     114.583 158.652 116.052  1.00  0.00     0.079 C 
ATOM     12  N   UNL     1     115.022 159.297 117.075  1.00  0.00    -0.243 NA
ATOM     13  C   UNL     1     115.975 158.655 117.969  1.00  0.00     0.323 C 
ATOM     14  H   UNL     1     118.368 157.439 115.911  1.00  0.00     0.170 HD
ENDROOT
BRANCH  13  15
ATOM     15  O   UNL     1     115.542 157.437 118.560  1.00  0.00    -0.364 OA
ATOM     16  H   UNL     1     115.672 157.549 119.516  1.00  0.00     0.213 HD
ENDBRANCH  13  15
BRANCH  11  17
ATOM     17  C   UNL     1     113.591 159.369 115.207  1.00  0.00     0.019 A 
ATOM     18  C   UNL     1     112.237 159.264 115.556  1.00  0.00     0.012 A 
ATOM     19  C   UNL     1     113.975 160.108 114.082  1.00  0.00     0.050 A 
ATOM     20  C   UNL     1     111.271 159.907 114.784  1.00  0.00     0.001 A 
ATOM     21  C   UNL     1     112.999 160.749 113.315  1.00  0.00     0.021 A 
ATOM     22  C   UNL     1     111.651 160.648 113.666  1.00  0.00     0.002 A 
ATOM     23  Cl  UNL     1     115.628 160.313 113.627  1.00  0.00    -0.084 Cl
ENDBRANCH  11  17
TORSDOF 2
ENDMDL
