MODEL 1
REMARK VINA RESULT:    -7.516      0.000      0.000
REMARK INTER + INTRA:          -8.351
REMARK INTER:                  -7.956
REMARK INTRA:                  -0.396
REMARK UNBOUND:                -0.396
REMARK SMILES Cc1ncc2n1-c1ccc(Cl)cc1C(c1ccccc1F)=NC2
REMARK SMILES IDX 1 1 2 2 3 3 4 4 5 5 6 6 7 7 8 8 9 9 10 10 11 11 12 12 13 13
REMARK SMILES IDX 14 14 22 15 23 16 15 17 16 18 20 19 17 20 19 21 18 22 21 23
REMARK H PARENT
ROOT
ATOM      1  C   UNL     1     144.079  98.490 134.449  1.00  0.00     0.088 C 
ATOM      2  C   UNL     1     143.838  97.062 134.783  1.00  0.00     0.110 A 
ATOM      3  N   UNL     1     144.560  96.074 134.287  1.00  0.00    -0.241 NA
ATOM      4  C   UNL     1     144.157  94.949 134.943  1.00  0.00     0.137 A 
ATOM      5  C   UNL     1     143.153  95.239 135.836  1.00  0.00     0.064 A 
ATOM      6  N   UNL     1     142.921  96.593 135.721  1.00  0.00    -0.298 N 
ATOM      7  C   UNL     1     141.899  97.300 136.414  1.00  0.00     0.057 A 
ATOM      8  C   UNL     1     141.227  98.348 135.765  1.00  0.00     0.029 A 
ATOM      9  C   UNL     1     140.184  99.024 136.400  1.00  0.00     0.023 A 
ATOM     10  C   UNL     1     139.797  98.651 137.683  1.00  0.00     0.041 A 
ATOM     11  Cl  UNL     1     138.505  99.479 138.459  1.00  0.00    -0.084 Cl
ATOM     12  C   UNL     1     140.448  97.612 138.341  1.00  0.00     0.033 A 
ATOM     13  C   UNL     1     141.509  96.931 137.719  1.00  0.00     0.026 A 
ATOM     14  C   UNL     1     142.226  95.895 138.531  1.00  0.00     0.077 C 
ATOM     15  N   UNL     1     142.626  94.746 138.107  1.00  0.00    -0.278 NA
ATOM     16  C   UNL     1     142.372  94.363 136.730  1.00  0.00     0.198 C 
ENDROOT
BRANCH  14  17
ATOM     17  C   UNL     1     142.534  96.227 139.945  1.00  0.00     0.036 A 
ATOM     18  C   UNL     1     141.570  96.009 140.937  1.00  0.00     0.013 A 
ATOM     19  C   UNL     1     143.775  96.768 140.281  1.00  0.00     0.132 A 
ATOM     20  C   UNL     1     141.863  96.330 142.263  1.00  0.00     0.001 A 
ATOM     21  C   UNL     1     144.066  97.085 141.605  1.00  0.00     0.040 A 
ATOM     22  C   UNL     1     143.109  96.866 142.597  1.00  0.00     0.003 A 
ATOM     23  F   UNL     1     144.724  96.947 139.352  1.00  0.00    -0.206 F 
ENDBRANCH  14  17
TORSDOF 1
ENDMDL
MODEL 2
REMARK VINA RESULT:    -7.422      2.665      4.286
REMARK INTER + INTRA:          -8.252
REMARK INTER:                  -9.127
REMARK INTRA:                   0.875
REMARK UNBOUND:                -0.396
REMARK SMILES Cc1ncc2n1-c1ccc(Cl)cc1C(c1ccccc1F)=NC2
REMARK SMILES IDX 1 1 2 2 3 3 4 4 5 5 6 6 7 7 8 8 9 9 10 10 11 11 12 12 13 13
REMARK SMILES IDX 14 14 22 15 23 16 15 17 16 18 20 19 17 20 19 21 18 22 21 23
REMARK H PARENT
ROOT
ATOM      1  C   UNL     1     140.670  98.028 137.730  1.00  0.00     0.088 C 
ATOM      2  C   UNL     1     141.963  97.336 137.490  1.00  0.00     0.110 A 
ATOM      3  N   UNL     1     142.546  97.289 136.306  1.00  0.00    -0.241 NA
ATOM      4  C   UNL     1     143.770  96.726 136.512  1.00  0.00     0.137 A 
ATOM      5  C   UNL     1     143.937  96.395 137.835  1.00  0.00     0.064 A 
ATOM      6  N   UNL     1     142.767  96.758 138.469  1.00  0.00    -0.298 N 
ATOM      7  C   UNL     1     142.484  96.518 139.843  1.00  0.00     0.057 A 
ATOM      8  C   UNL     1     141.175  96.182 140.224  1.00  0.00     0.029 A 
ATOM      9  C   UNL     1     140.877  95.888 141.556  1.00  0.00     0.023 A 
ATOM     10  C   UNL     1     141.885  95.915 142.513  1.00  0.00     0.041 A 
ATOM     11  Cl  UNL     1     141.518  95.542 144.152  1.00  0.00    -0.084 Cl
ATOM     12  C   UNL     1     143.190  96.242 142.154  1.00  0.00     0.033 A 
ATOM     13  C   UNL     1     143.501  96.554 140.818  1.00  0.00     0.026 A 
ATOM     14  C   UNL     1     144.905  96.995 140.530  1.00  0.00     0.077 C 
ATOM     15  N   UNL     1     145.613  96.645 139.511  1.00  0.00    -0.278 NA
ATOM     16  C   UNL     1     145.054  95.730 138.532  1.00  0.00     0.198 C 
ENDROOT
BRANCH  14  17
ATOM     17  C   UNL     1     145.532  97.947 141.482  1.00  0.00     0.036 A 
ATOM     18  C   UNL     1     144.802  98.409 142.583  1.00  0.00     0.013 A 
ATOM     19  C   UNL     1     146.838  98.387 141.271  1.00  0.00     0.132 A 
ATOM     20  C   UNL     1     145.394  99.309 143.472  1.00  0.00     0.001 A 
ATOM     21  C   UNL     1     147.427  99.283 142.159  1.00  0.00     0.040 A 
ATOM     22  C   UNL     1     146.705  99.744 143.260  1.00  0.00     0.003 A 
ATOM     23  F   UNL     1     147.565  97.925 140.244  1.00  0.00    -0.206 F 
ENDBRANCH  14  17
TORSDOF 1
ENDMDL
MODEL 3
REMARK VINA RESULT:    -7.232      3.344      5.019
REMARK INTER + INTRA:          -8.050
REMARK INTER:                  -7.688
REMARK INTRA:                  -0.362
REMARK UNBOUND:                -0.396
REMARK SMILES Cc1ncc2n1-c1ccc(Cl)cc1C(c1ccccc1F)=NC2
REMARK SMILES IDX 1 1 2 2 3 3 4 4 5 5 6 6 7 7 8 8 9 9 10 10 11 11 12 12 13 13
REMARK SMILES IDX 14 14 22 15 23 16 15 17 16 18 20 19 17 20 19 21 18 22 21 23
REMARK H PARENT
ROOT
ATOM      1  C   UNL     1     138.221  95.755 133.283  1.00  0.00     0.088 C 
ATOM      2  C   UNL     1     139.056  96.981 133.390  1.00  0.00     0.110 A 
ATOM      3  N   UNL     1     138.566  98.200 133.263  1.00  0.00    -0.241 NA
ATOM      4  C   UNL     1     139.582  99.048 133.586  1.00  0.00     0.137 A 
ATOM      5  C   UNL     1     140.724  98.348 133.890  1.00  0.00     0.064 A 
ATOM      6  N   UNL     1     140.404  97.015 133.740  1.00  0.00    -0.298 N 
ATOM      7  C   UNL     1     141.326  95.941 133.881  1.00  0.00     0.057 A 
ATOM      8  C   UNL     1     141.214  94.824 133.037  1.00  0.00     0.029 A 
ATOM      9  C   UNL     1     142.137  93.780 133.115  1.00  0.00     0.023 A 
ATOM     10  C   UNL     1     143.184  93.847 134.028  1.00  0.00     0.041 A 
ATOM     11  Cl  UNL     1     144.325  92.564 134.115  1.00  0.00    -0.084 Cl
ATOM     12  C   UNL     1     143.314  94.948 134.871  1.00  0.00     0.033 A 
ATOM     13  C   UNL     1     142.384  96.001 134.812  1.00  0.00     0.026 A 
ATOM     14  C   UNL     1     142.533  97.100 135.821  1.00  0.00     0.077 C 
ATOM     15  N   UNL     1     142.392  98.361 135.592  1.00  0.00    -0.278 NA
ATOM     16  C   UNL     1     142.077  98.812 134.249  1.00  0.00     0.198 C 
ENDROOT
BRANCH  14  17
ATOM     17  C   UNL     1     142.838  96.707 137.220  1.00  0.00     0.036 A 
ATOM     18  C   UNL     1     144.161  96.446 137.596  1.00  0.00     0.013 A 
ATOM     19  C   UNL     1     141.808  96.586 138.152  1.00  0.00     0.132 A 
ATOM     20  C   UNL     1     144.441  96.071 138.911  1.00  0.00     0.001 A 
ATOM     21  C   UNL     1     142.089  96.213 139.463  1.00  0.00     0.040 A 
ATOM     22  C   UNL     1     143.407  95.955 139.843  1.00  0.00     0.003 A 
ATOM     23  F   UNL     1     140.540  96.870 137.821  1.00  0.00    -0.206 F 
ENDBRANCH  14  17
TORSDOF 1
ENDMDL
MODEL 4
REMARK VINA RESULT:    -6.911      3.439      6.327
REMARK INTER + INTRA:          -7.711
REMARK INTER:                  -7.075
REMARK INTRA:                  -0.636
REMARK UNBOUND:                -0.396
REMARK SMILES Cc1ncc2n1-c1ccc(Cl)cc1C(c1ccccc1F)=NC2
REMARK SMILES IDX 1 1 2 2 3 3 4 4 5 5 6 6 7 7 8 8 9 9 10 10 11 11 12 12 13 13
REMARK SMILES IDX 14 14 22 15 23 16 15 17 16 18 20 19 17 20 19 21 18 22 21 23
REMARK H PARENT
ROOT
ATOM      1  C   UNL     1     145.076  94.287 135.712  1.00  0.00     0.088 C 
ATOM      2  C   UNL     1     145.268  95.244 134.590  1.00  0.00     0.110 A 
ATOM      3  N   UNL     1     146.222  95.114 133.687  1.00  0.00    -0.241 NA
ATOM      4  C   UNL     1     145.978  96.066 132.744  1.00  0.00     0.137 A 
ATOM      5  C   UNL     1     144.876  96.814 133.080  1.00  0.00     0.064 A 
ATOM      6  N   UNL     1     144.427  96.310 134.283  1.00  0.00    -0.298 N 
ATOM      7  C   UNL     1     143.345  96.851 135.033  1.00  0.00     0.057 A 
ATOM      8  C   UNL     1     143.417  96.857 136.435  1.00  0.00     0.029 A 
ATOM      9  C   UNL     1     142.395  97.429 137.196  1.00  0.00     0.023 A 
ATOM     10  C   UNL     1     141.301  98.008 136.562  1.00  0.00     0.041 A 
ATOM     11  Cl  UNL     1     140.049  98.720 137.501  1.00  0.00    -0.084 Cl
ATOM     12  C   UNL     1     141.213  98.015 135.173  1.00  0.00     0.033 A 
ATOM     13  C   UNL     1     142.229  97.430 134.394  1.00  0.00     0.026 A 
ATOM     14  C   UNL     1     142.012  97.386 132.912  1.00  0.00     0.077 C 
ATOM     15  N   UNL     1     142.904  97.617 132.010  1.00  0.00    -0.278 NA
ATOM     16  C   UNL     1     144.252  97.973 132.413  1.00  0.00     0.198 C 
ENDROOT
BRANCH  14  17
ATOM     17  C   UNL     1     140.658  97.012 132.429  1.00  0.00     0.036 A 
ATOM     18  C   UNL     1     140.242  95.677 132.497  1.00  0.00     0.013 A 
ATOM     19  C   UNL     1     139.812  97.984 131.899  1.00  0.00     0.132 A 
ATOM     20  C   UNL     1     138.971  95.329 132.036  1.00  0.00     0.001 A 
ATOM     21  C   UNL     1     138.544  97.636 131.441  1.00  0.00     0.040 A 
ATOM     22  C   UNL     1     138.123  96.306 131.510  1.00  0.00     0.003 A 
ATOM     23  F   UNL     1     140.178  99.273 131.862  1.00  0.00    -0.206 F 
ENDBRANCH  14  17
TORSDOF 1
ENDMDL
MODEL 5
REMARK VINA RESULT:    -6.836      3.776      5.527
REMARK INTER + INTRA:          -7.631
REMARK INTER:                  -7.009
REMARK INTRA:                  -0.622
REMARK UNBOUND:                -0.396
REMARK SMILES Cc1ncc2n1-c1ccc(Cl)cc1C(c1ccccc1F)=NC2
REMARK SMILES IDX 1 1 2 2 3 3 4 4 5 5 6 6 7 7 8 8 9 9 10 10 11 11 12 12 13 13
REMARK SMILES IDX 14 14 22 15 23 16 15 17 16 18 20 19 17 20 19 21 18 22 21 23
REMARK H PARENT
ROOT
ATOM      1  C   UNL     1     139.763  95.337 131.018  1.00  0.00     0.088 C 
ATOM      2  C   UNL     1     139.647  96.636 131.731  1.00  0.00     0.110 A 
ATOM      3  N   UNL     1     138.526  97.331 131.786  1.00  0.00    -0.241 NA
ATOM      4  C   UNL     1     138.763  98.357 132.652  1.00  0.00     0.137 A 
ATOM      5  C   UNL     1     140.055  98.314 133.117  1.00  0.00     0.064 A 
ATOM      6  N   UNL     1     140.642  97.224 132.509  1.00  0.00    -0.298 N 
ATOM      7  C   UNL     1     142.010  96.858 132.651  1.00  0.00     0.057 A 
ATOM      8  C   UNL     1     142.698  96.332 131.546  1.00  0.00     0.029 A 
ATOM      9  C   UNL     1     144.054  96.014 131.641  1.00  0.00     0.023 A 
ATOM     10  C   UNL     1     144.735  96.231 132.833  1.00  0.00     0.041 A 
ATOM     11  Cl  UNL     1     146.408  95.848 132.944  1.00  0.00    -0.084 Cl
ATOM     12  C   UNL     1     144.071  96.756 133.939  1.00  0.00     0.033 A 
ATOM     13  C   UNL     1     142.702  97.068 133.862  1.00  0.00     0.026 A 
ATOM     14  C   UNL     1     142.036  97.533 135.123  1.00  0.00     0.077 C 
ATOM     15  N   UNL     1     141.173  98.485 135.215  1.00  0.00    -0.278 NA
ATOM     16  C   UNL     1     140.787  99.219 134.023  1.00  0.00     0.198 C 
ENDROOT
BRANCH  14  17
ATOM     17  C   UNL     1     142.371  96.814 136.378  1.00  0.00     0.036 A 
ATOM     18  C   UNL     1     143.095  97.469 137.381  1.00  0.00     0.013 A 
ATOM     19  C   UNL     1     141.978  95.487 136.550  1.00  0.00     0.132 A 
ATOM     20  C   UNL     1     143.414  96.786 138.557  1.00  0.00     0.001 A 
ATOM     21  C   UNL     1     142.295  94.808 137.723  1.00  0.00     0.040 A 
ATOM     22  C   UNL     1     143.013  95.458 138.728  1.00  0.00     0.003 A 
ATOM     23  F   UNL     1     141.251  94.856 135.617  1.00  0.00    -0.206 F 
ENDBRANCH  14  17
TORSDOF 1
ENDMDL
MODEL 6
REMARK VINA RESULT:    -6.818      2.896      5.868
REMARK INTER + INTRA:          -7.612
REMARK INTER:                  -6.982
REMARK INTRA:                  -0.629
REMARK UNBOUND:                -0.396
REMARK SMILES Cc1ncc2n1-c1ccc(Cl)cc1C(c1ccccc1F)=NC2
REMARK SMILES IDX 1 1 2 2 3 3 4 4 5 5 6 6 7 7 8 8 9 9 10 10 11 11 12 12 13 13
REMARK SMILES IDX 14 14 22 15 23 16 15 17 16 18 20 19 17 20 19 21 18 22 21 23
REMARK H PARENT
ROOT
ATOM      1  C   UNL     1     144.001  93.702 134.680  1.00  0.00     0.088 C 
ATOM      2  C   UNL     1     144.528  95.022 134.243  1.00  0.00     0.110 A 
ATOM      3  N   UNL     1     145.505  95.154 133.366  1.00  0.00    -0.241 NA
ATOM      4  C   UNL     1     145.592  96.488 133.099  1.00  0.00     0.137 A 
ATOM      5  C   UNL     1     144.677  97.194 133.841  1.00  0.00     0.064 A 
ATOM      6  N   UNL     1     144.004  96.262 134.603  1.00  0.00    -0.298 N 
ATOM      7  C   UNL     1     143.018  96.575 135.580  1.00  0.00     0.057 A 
ATOM      8  C   UNL     1     142.954  95.815 136.759  1.00  0.00     0.029 A 
ATOM      9  C   UNL     1     142.032  96.133 137.758  1.00  0.00     0.023 A 
ATOM     10  C   UNL     1     141.178  97.217 137.594  1.00  0.00     0.041 A 
ATOM     11  Cl  UNL     1     140.051  97.613 138.831  1.00  0.00    -0.084 Cl
ATOM     12  C   UNL     1     141.230  97.986 136.434  1.00  0.00     0.033 A 
ATOM     13  C   UNL     1     142.144  97.669 135.413  1.00  0.00     0.026 A 
ATOM     14  C   UNL     1     142.068  98.479 134.154  1.00  0.00     0.077 C 
ATOM     15  N   UNL     1     143.072  98.917 133.475  1.00  0.00    -0.278 NA
ATOM     16  C   UNL     1     144.421  98.644 133.937  1.00  0.00     0.198 C 
ENDROOT
BRANCH  14  17
ATOM     17  C   UNL     1     140.717  98.781 133.615  1.00  0.00     0.036 A 
ATOM     18  C   UNL     1     140.186 100.069 133.754  1.00  0.00     0.013 A 
ATOM     19  C   UNL     1     139.976  97.782 132.985  1.00  0.00     0.132 A 
ATOM     20  C   UNL     1     138.913 100.346 133.251  1.00  0.00     0.001 A 
ATOM     21  C   UNL     1     138.708  98.059 132.483  1.00  0.00     0.040 A 
ATOM     22  C   UNL     1     138.176  99.343 132.616  1.00  0.00     0.003 A 
ATOM     23  F   UNL     1     140.485  96.554 132.809  1.00  0.00    -0.206 F 
ENDBRANCH  14  17
TORSDOF 1
ENDMDL
MODEL 7
REMARK VINA RESULT:    -6.706      4.679      7.446
REMARK INTER + INTRA:          -7.494
REMARK INTER:                  -7.441
REMARK INTRA:                  -0.053
REMARK UNBOUND:                -0.396
REMARK SMILES Cc1ncc2n1-c1ccc(Cl)cc1C(c1ccccc1F)=NC2
REMARK SMILES IDX 1 1 2 2 3 3 4 4 5 5 6 6 7 7 8 8 9 9 10 10 11 11 12 12 13 13
REMARK SMILES IDX 14 14 22 15 23 16 15 17 16 18 20 19 17 20 19 21 18 22 21 23
REMARK H PARENT
ROOT
ATOM      1  C   UNL     1     142.003  95.675 136.244  1.00  0.00     0.088 C 
ATOM      2  C   UNL     1     142.611  95.795 134.892  1.00  0.00     0.110 A 
ATOM      3  N   UNL     1     143.616  95.042 134.485  1.00  0.00    -0.241 NA
ATOM      4  C   UNL     1     143.781  95.322 133.161  1.00  0.00     0.137 A 
ATOM      5  C   UNL     1     142.886  96.280 132.750  1.00  0.00     0.064 A 
ATOM      6  N   UNL     1     142.145  96.612 133.865  1.00  0.00    -0.298 N 
ATOM      7  C   UNL     1     141.152  97.630 133.902  1.00  0.00     0.057 A 
ATOM      8  C   UNL     1     141.016  98.414 135.059  1.00  0.00     0.029 A 
ATOM      9  C   UNL     1     140.086  99.455 135.105  1.00  0.00     0.023 A 
ATOM     10  C   UNL     1     139.296  99.728 133.994  1.00  0.00     0.041 A 
ATOM     11  Cl  UNL     1     138.160 101.018 134.051  1.00  0.00    -0.084 Cl
ATOM     12  C   UNL     1     139.419  98.964 132.837  1.00  0.00     0.033 A 
ATOM     13  C   UNL     1     140.342  97.904 132.781  1.00  0.00     0.026 A 
ATOM     14  C   UNL     1     140.342  97.065 131.538  1.00  0.00     0.077 C 
ATOM     15  N   UNL     1     141.386  96.617 130.929  1.00  0.00    -0.278 NA
ATOM     16  C   UNL     1     142.706  96.938 131.442  1.00  0.00     0.198 C 
ENDROOT
BRANCH  14  17
ATOM     17  C   UNL     1     139.024  96.684 130.969  1.00  0.00     0.036 A 
ATOM     18  C   UNL     1     138.206  97.665 130.397  1.00  0.00     0.013 A 
ATOM     19  C   UNL     1     138.599  95.358 131.018  1.00  0.00     0.132 A 
ATOM     20  C   UNL     1     136.965  97.303 129.869  1.00  0.00     0.001 A 
ATOM     21  C   UNL     1     137.362  94.998 130.490  1.00  0.00     0.040 A 
ATOM     22  C   UNL     1     136.544  95.972 129.915  1.00  0.00     0.003 A 
ATOM     23  F   UNL     1     139.386  94.399 131.526  1.00  0.00    -0.206 F 
ENDBRANCH  14  17
TORSDOF 1
ENDMDL
MODEL 8
REMARK VINA RESULT:    -6.628      3.153      5.494
REMARK INTER + INTRA:          -7.411
REMARK INTER:                  -6.784
REMARK INTRA:                  -0.627
REMARK UNBOUND:                -0.396
REMARK SMILES Cc1ncc2n1-c1ccc(Cl)cc1C(c1ccccc1F)=NC2
REMARK SMILES IDX 1 1 2 2 3 3 4 4 5 5 6 6 7 7 8 8 9 9 10 10 11 11 12 12 13 13
REMARK SMILES IDX 14 14 22 15 23 16 15 17 16 18 20 19 17 20 19 21 18 22 21 23
REMARK H PARENT
ROOT
ATOM      1  C   UNL     1     139.601 100.313 134.189  1.00  0.00     0.088 C 
ATOM      2  C   UNL     1     139.251  98.977 133.637  1.00  0.00     0.110 A 
ATOM      3  N   UNL     1     138.563  98.817 132.521  1.00  0.00    -0.241 NA
ATOM      4  C   UNL     1     138.587  97.480 132.256  1.00  0.00     0.137 A 
ATOM      5  C   UNL     1     139.273  96.801 133.233  1.00  0.00     0.064 A 
ATOM      6  N   UNL     1     139.682  97.754 134.143  1.00  0.00    -0.298 N 
ATOM      7  C   UNL     1     140.361  97.470 135.360  1.00  0.00     0.057 A 
ATOM      8  C   UNL     1     140.074  98.236 136.501  1.00  0.00     0.029 A 
ATOM      9  C   UNL     1     140.685  97.947 137.723  1.00  0.00     0.023 A 
ATOM     10  C   UNL     1     141.577  96.885 137.817  1.00  0.00     0.041 A 
ATOM     11  Cl  UNL     1     142.320  96.524 139.325  1.00  0.00    -0.084 Cl
ATOM     12  C   UNL     1     141.871  96.111 136.698  1.00  0.00     0.033 A 
ATOM     13  C   UNL     1     141.274  96.399 135.458  1.00  0.00     0.026 A 
ATOM     14  C   UNL     1     141.720  95.586 134.280  1.00  0.00     0.077 C 
ATOM     15  N   UNL     1     140.958  95.119 133.351  1.00  0.00    -0.278 NA
ATOM     16  C   UNL     1     139.527  95.359 133.413  1.00  0.00     0.198 C 
ENDROOT
BRANCH  14  17
ATOM     17  C   UNL     1     143.175  95.318 134.145  1.00  0.00     0.036 A 
ATOM     18  C   UNL     1     143.680  94.052 134.462  1.00  0.00     0.013 A 
ATOM     19  C   UNL     1     144.035  96.328 133.718  1.00  0.00     0.132 A 
ATOM     20  C   UNL     1     145.049  93.807 134.341  1.00  0.00     0.001 A 
ATOM     21  C   UNL     1     145.399  96.082 133.595  1.00  0.00     0.040 A 
ATOM     22  C   UNL     1     145.907  94.820 133.907  1.00  0.00     0.003 A 
ATOM     23  F   UNL     1     143.564  97.535 133.372  1.00  0.00    -0.206 F 
ENDBRANCH  14  17
TORSDOF 1
ENDMDL
MODEL 9
REMARK VINA RESULT:    -6.530      3.841      6.342
REMARK INTER + INTRA:          -7.308
REMARK INTER:                  -6.747
REMARK INTRA:                  -0.561
REMARK UNBOUND:                -0.396
REMARK SMILES Cc1ncc2n1-c1ccc(Cl)cc1C(c1ccccc1F)=NC2
REMARK SMILES IDX 1 1 2 2 3 3 4 4 5 5 6 6 7 7 8 8 9 9 10 10 11 11 12 12 13 13
REMARK SMILES IDX 14 14 22 15 23 16 15 17 16 18 20 19 17 20 19 21 18 22 21 23
REMARK H PARENT
ROOT
ATOM      1  C   UNL     1     146.200  94.663 134.712  1.00  0.00     0.088 C 
ATOM      2  C   UNL     1     145.235  94.961 135.802  1.00  0.00     0.110 A 
ATOM      3  N   UNL     1     145.606  95.371 137.001  1.00  0.00    -0.241 NA
ATOM      4  C   UNL     1     144.457  95.697 137.658  1.00  0.00     0.137 A 
ATOM      5  C   UNL     1     143.359  95.459 136.867  1.00  0.00     0.064 A 
ATOM      6  N   UNL     1     143.847  94.958 135.678  1.00  0.00    -0.298 N 
ATOM      7  C   UNL     1     143.039  94.502 134.600  1.00  0.00     0.057 A 
ATOM      8  C   UNL     1     143.457  93.390 133.852  1.00  0.00     0.029 A 
ATOM      9  C   UNL     1     142.659  92.886 132.823  1.00  0.00     0.023 A 
ATOM     10  C   UNL     1     141.434  93.481 132.542  1.00  0.00     0.041 A 
ATOM     11  Cl  UNL     1     140.449  92.853 131.280  1.00  0.00    -0.084 Cl
ATOM     12  C   UNL     1     141.000  94.582 133.276  1.00  0.00     0.033 A 
ATOM     13  C   UNL     1     141.800  95.108 134.306  1.00  0.00     0.026 A 
ATOM     14  C   UNL     1     141.311  96.355 134.980  1.00  0.00     0.077 C 
ATOM     15  N   UNL     1     141.362  96.600 136.244  1.00  0.00    -0.278 NA
ATOM     16  C   UNL     1     141.917  95.605 137.144  1.00  0.00     0.198 C 
ENDROOT
BRANCH  14  17
ATOM     17  C   UNL     1     140.746  97.423 134.116  1.00  0.00     0.036 A 
ATOM     18  C   UNL     1     141.598  98.370 133.536  1.00  0.00     0.013 A 
ATOM     19  C   UNL     1     139.371  97.489 133.896  1.00  0.00     0.132 A 
ATOM     20  C   UNL     1     141.062  99.376 132.730  1.00  0.00     0.001 A 
ATOM     21  C   UNL     1     138.837  98.491 133.091  1.00  0.00     0.040 A 
ATOM     22  C   UNL     1     139.683  99.436 132.507  1.00  0.00     0.003 A 
ATOM     23  F   UNL     1     138.545  96.568 134.412  1.00  0.00    -0.206 F 
ENDBRANCH  14  17
TORSDOF 1
ENDMDL
