MODEL 1
REMARK VINA RESULT:   -10.754      0.000      0.000
REMARK INTER + INTRA:         -11.144
REMARK INTER:                 -11.383
REMARK INTRA:                   0.239
REMARK UNBOUND:                 0.239
REMARK SMILES Cc1ncc2n1-c1ccc(Cl)cc1C(c1ccccc1F)=NC2
REMARK SMILES IDX 1 1 2 2 3 3 4 4 5 5 6 6 7 7 8 8 9 9 10 10 11 11 12 12 13 13
REMARK SMILES IDX 14 14 22 15 23 16 15 17 16 18 20 19 17 20 19 21 18 22 21 23
REMARK H PARENT
ROOT
ATOM      1  C   UNL     1     116.685 161.326 111.737  1.00  0.00     0.088 C 
ATOM      2  C   UNL     1     116.887 159.991 112.360  1.00  0.00     0.110 A 
ATOM      3  N   UNL     1     116.257 159.604 113.454  1.00  0.00    -0.241 NA
ATOM      4  C   UNL     1     116.568 158.287 113.619  1.00  0.00     0.137 A 
ATOM      5  C   UNL     1     117.423 157.861 112.632  1.00  0.00     0.064 A 
ATOM      6  N   UNL     1     117.658 158.958 111.831  1.00  0.00    -0.298 N 
ATOM      7  C   UNL     1     118.557 158.978 110.728  1.00  0.00     0.057 A 
ATOM      8  C   UNL     1     119.308 160.137 110.477  1.00  0.00     0.029 A 
ATOM      9  C   UNL     1     120.238 160.168 109.435  1.00  0.00     0.023 A 
ATOM     10  C   UNL     1     120.432 159.039 108.647  1.00  0.00     0.041 A 
ATOM     11  Cl  UNL     1     121.585 159.076 107.371  1.00  0.00    -0.084 Cl
ATOM     12  C   UNL     1     119.700 157.879 108.884  1.00  0.00     0.033 A 
ATOM     13  C   UNL     1     118.750 157.838 109.921  1.00  0.00     0.026 A 
ATOM     14  C   UNL     1     117.930 156.590 110.046  1.00  0.00     0.077 C 
ATOM     15  N   UNL     1     117.609 156.005 111.149  1.00  0.00    -0.278 NA
ATOM     16  C   UNL     1     118.070 156.553 112.411  1.00  0.00     0.198 C 
ENDROOT
BRANCH  14  17
ATOM     17  C   UNL     1     117.410 155.984 108.794  1.00  0.00     0.036 A 
ATOM     18  C   UNL     1     118.300 155.620 107.777  1.00  0.00     0.013 A 
ATOM     19  C   UNL     1     116.039 155.793 108.628  1.00  0.00     0.132 A 
ATOM     20  C   UNL     1     117.805 155.057 106.599  1.00  0.00     0.001 A 
ATOM     21  C   UNL     1     115.547 155.230 107.453  1.00  0.00     0.040 A 
ATOM     22  C   UNL     1     116.431 154.861 106.438  1.00  0.00     0.003 A 
ATOM     23  F   UNL     1     115.175 156.099 109.607  1.00  0.00    -0.206 F 
ENDBRANCH  14  17
TORSDOF 1
ENDMDL
MODEL 2
REMARK VINA RESULT:   -10.116      2.946      6.226
REMARK INTER + INTRA:         -10.469
REMARK INTER:                 -11.334
REMARK INTRA:                   0.865
REMARK UNBOUND:                 0.239
REMARK SMILES Cc1ncc2n1-c1ccc(Cl)cc1C(c1ccccc1F)=NC2
REMARK SMILES IDX 1 1 2 2 3 3 4 4 5 5 6 6 7 7 8 8 9 9 10 10 11 11 12 12 13 13
REMARK SMILES IDX 14 14 22 15 23 16 15 17 16 18 20 19 17 20 19 21 18 22 21 23
REMARK H PARENT
ROOT
ATOM      1  C   UNL     1     116.671 155.975 107.157  1.00  0.00     0.088 C 
ATOM      2  C   UNL     1     117.895 156.818 107.204  1.00  0.00     0.110 A 
ATOM      3  N   UNL     1     118.499 157.273 106.121  1.00  0.00    -0.241 NA
ATOM      4  C   UNL     1     119.464 158.129 106.562  1.00  0.00     0.137 A 
ATOM      5  C   UNL     1     119.477 158.183 107.935  1.00  0.00     0.064 A 
ATOM      6  N   UNL     1     118.488 157.321 108.359  1.00  0.00    -0.298 N 
ATOM      7  C   UNL     1     118.214 157.014 109.721  1.00  0.00     0.057 A 
ATOM      8  C   UNL     1     117.832 155.707 110.066  1.00  0.00     0.029 A 
ATOM      9  C   UNL     1     117.608 155.362 111.401  1.00  0.00     0.023 A 
ATOM     10  C   UNL     1     117.775 156.315 112.400  1.00  0.00     0.041 A 
ATOM     11  Cl  UNL     1     117.509 155.885 114.043  1.00  0.00    -0.084 Cl
ATOM     12  C   UNL     1     118.157 157.614 112.078  1.00  0.00     0.033 A 
ATOM     13  C   UNL     1     118.373 157.979 110.737  1.00  0.00     0.026 A 
ATOM     14  C   UNL     1     118.681 159.421 110.463  1.00  0.00     0.077 C 
ATOM     15  N   UNL     1     119.557 159.861 109.626  1.00  0.00    -0.278 NA
ATOM     16  C   UNL     1     120.356 158.917 108.865  1.00  0.00     0.198 C 
ENDROOT
BRANCH  14  17
ATOM     17  C   UNL     1     117.887 160.441 111.194  1.00  0.00     0.036 A 
ATOM     18  C   UNL     1     116.866 160.035 112.061  1.00  0.00     0.013 A 
ATOM     19  C   UNL     1     118.150 161.797 111.007  1.00  0.00     0.132 A 
ATOM     20  C   UNL     1     116.118 160.998 112.742  1.00  0.00     0.001 A 
ATOM     21  C   UNL     1     117.405 162.756 111.687  1.00  0.00     0.040 A 
ATOM     22  C   UNL     1     116.388 162.357 112.555  1.00  0.00     0.003 A 
ATOM     23  F   UNL     1     119.149 162.203 110.211  1.00  0.00    -0.206 F 
ENDBRANCH  14  17
TORSDOF 1
ENDMDL
MODEL 3
REMARK VINA RESULT:    -9.707      2.367      3.662
REMARK INTER + INTRA:         -10.036
REMARK INTER:                  -9.542
REMARK INTRA:                  -0.493
REMARK UNBOUND:                 0.239
REMARK SMILES Cc1ncc2n1-c1ccc(Cl)cc1C(c1ccccc1F)=NC2
REMARK SMILES IDX 1 1 2 2 3 3 4 4 5 5 6 6 7 7 8 8 9 9 10 10 11 11 12 12 13 13
REMARK SMILES IDX 14 14 22 15 23 16 15 17 16 18 20 19 17 20 19 21 18 22 21 23
REMARK H PARENT
ROOT
ATOM      1  C   UNL     1     113.352 158.668 114.609  1.00  0.00     0.088 C 
ATOM      2  C   UNL     1     114.540 157.796 114.810  1.00  0.00     0.110 A 
ATOM      3  N   UNL     1     114.525 156.725 115.582  1.00  0.00    -0.241 NA
ATOM      4  C   UNL     1     115.722 156.105 115.384  1.00  0.00     0.137 A 
ATOM      5  C   UNL     1     116.500 156.815 114.501  1.00  0.00     0.064 A 
ATOM      6  N   UNL     1     115.758 157.922 114.146  1.00  0.00    -0.298 N 
ATOM      7  C   UNL     1     116.222 158.970 113.305  1.00  0.00     0.057 A 
ATOM      8  C   UNL     1     115.839 160.293 113.581  1.00  0.00     0.029 A 
ATOM      9  C   UNL     1     116.322 161.348 112.805  1.00  0.00     0.023 A 
ATOM     10  C   UNL     1     117.200 161.093 111.757  1.00  0.00     0.041 A 
ATOM     11  Cl  UNL     1     117.802 162.396 110.810  1.00  0.00    -0.084 Cl
ATOM     12  C   UNL     1     117.595 159.789 111.471  1.00  0.00     0.033 A 
ATOM     13  C   UNL     1     117.106 158.714 112.235  1.00  0.00     0.026 A 
ATOM     14  C   UNL     1     117.496 157.334 111.801  1.00  0.00     0.077 C 
ATOM     15  N   UNL     1     117.834 156.363 112.579  1.00  0.00    -0.278 NA
ATOM     16  C   UNL     1     117.872 156.578 114.014  1.00  0.00     0.198 C 
ENDROOT
BRANCH  14  17
ATOM     17  C   UNL     1     117.462 157.040 110.345  1.00  0.00     0.036 A 
ATOM     18  C   UNL     1     116.289 156.543 109.765  1.00  0.00     0.013 A 
ATOM     19  C   UNL     1     118.598 157.245 109.564  1.00  0.00     0.132 A 
ATOM     20  C   UNL     1     116.264 156.262 108.397  1.00  0.00     0.001 A 
ATOM     21  C   UNL     1     118.572 156.966 108.201  1.00  0.00     0.040 A 
ATOM     22  C   UNL     1     117.403 156.474 107.616  1.00  0.00     0.003 A 
ATOM     23  F   UNL     1     119.718 157.757 110.095  1.00  0.00    -0.206 F 
ENDBRANCH  14  17
TORSDOF 1
ENDMDL
MODEL 4
REMARK VINA RESULT:    -9.434      2.451      3.642
REMARK INTER + INTRA:          -9.746
REMARK INTER:                  -9.111
REMARK INTRA:                  -0.636
REMARK UNBOUND:                 0.239
REMARK SMILES Cc1ncc2n1-c1ccc(Cl)cc1C(c1ccccc1F)=NC2
REMARK SMILES IDX 1 1 2 2 3 3 4 4 5 5 6 6 7 7 8 8 9 9 10 10 11 11 12 12 13 13
REMARK SMILES IDX 14 14 22 15 23 16 15 17 16 18 20 19 17 20 19 21 18 22 21 23
REMARK H PARENT
ROOT
ATOM      1  C   UNL     1     113.556 157.027 114.981  1.00  0.00     0.088 C 
ATOM      2  C   UNL     1     114.757 156.152 114.939  1.00  0.00     0.110 A 
ATOM      3  N   UNL     1     114.827 154.993 115.568  1.00  0.00    -0.241 NA
ATOM      4  C   UNL     1     115.993 154.417 115.163  1.00  0.00     0.137 A 
ATOM      5  C   UNL     1     116.669 155.240 114.295  1.00  0.00     0.064 A 
ATOM      6  N   UNL     1     115.894 156.373 114.166  1.00  0.00    -0.298 N 
ATOM      7  C   UNL     1     116.264 157.524 113.415  1.00  0.00     0.057 A 
ATOM      8  C   UNL     1     115.916 158.797 113.894  1.00  0.00     0.029 A 
ATOM      9  C   UNL     1     116.311 159.947 113.207  1.00  0.00     0.023 A 
ATOM     10  C   UNL     1     117.066 159.834 112.045  1.00  0.00     0.041 A 
ATOM     11  Cl  UNL     1     117.561 161.252 111.207  1.00  0.00    -0.084 Cl
ATOM     12  C   UNL     1     117.425 158.580 111.556  1.00  0.00     0.033 A 
ATOM     13  C   UNL     1     117.022 157.414 112.231  1.00  0.00     0.026 A 
ATOM     14  C   UNL     1     117.359 156.102 111.587  1.00  0.00     0.077 C 
ATOM     15  N   UNL     1     117.779 155.047 112.196  1.00  0.00    -0.278 NA
ATOM     16  C   UNL     1     117.977 155.083 113.633  1.00  0.00     0.198 C 
ENDROOT
BRANCH  14  17
ATOM     17  C   UNL     1     117.162 155.991 110.119  1.00  0.00     0.036 A 
ATOM     18  C   UNL     1     118.274 155.947 109.270  1.00  0.00     0.013 A 
ATOM     19  C   UNL     1     115.873 155.943 109.588  1.00  0.00     0.132 A 
ATOM     20  C   UNL     1     118.084 155.849 107.891  1.00  0.00     0.001 A 
ATOM     21  C   UNL     1     115.684 155.843 108.213  1.00  0.00     0.040 A 
ATOM     22  C   UNL     1     116.791 155.796 107.363  1.00  0.00     0.003 A 
ATOM     23  F   UNL     1     114.797 155.943 110.388  1.00  0.00    -0.206 F 
ENDBRANCH  14  17
TORSDOF 1
ENDMDL
MODEL 5
REMARK VINA RESULT:    -8.881      2.973      5.297
REMARK INTER + INTRA:          -9.161
REMARK INTER:                  -8.581
REMARK INTRA:                  -0.580
REMARK UNBOUND:                 0.239
REMARK SMILES Cc1ncc2n1-c1ccc(Cl)cc1C(c1ccccc1F)=NC2
REMARK SMILES IDX 1 1 2 2 3 3 4 4 5 5 6 6 7 7 8 8 9 9 10 10 11 11 12 12 13 13
REMARK SMILES IDX 14 14 22 15 23 16 15 17 16 18 20 19 17 20 19 21 18 22 21 23
REMARK H PARENT
ROOT
ATOM      1  C   UNL     1     120.684 159.418 109.710  1.00  0.00     0.088 C 
ATOM      2  C   UNL     1     119.632 158.565 109.096  1.00  0.00     0.110 A 
ATOM      3  N   UNL     1     119.847 157.804 108.039  1.00  0.00    -0.241 NA
ATOM      4  C   UNL     1     118.717 157.060 107.877  1.00  0.00     0.137 A 
ATOM      5  C   UNL     1     117.780 157.383 108.828  1.00  0.00     0.064 A 
ATOM      6  N   UNL     1     118.348 158.372 109.602  1.00  0.00    -0.298 N 
ATOM      7  C   UNL     1     117.684 159.053 110.660  1.00  0.00     0.057 A 
ATOM      8  C   UNL     1     117.935 160.420 110.860  1.00  0.00     0.029 A 
ATOM      9  C   UNL     1     117.258 161.128 111.856  1.00  0.00     0.023 A 
ATOM     10  C   UNL     1     116.318 160.479 112.649  1.00  0.00     0.041 A 
ATOM     11  Cl  UNL     1     115.478 161.355 113.868  1.00  0.00    -0.084 Cl
ATOM     12  C   UNL     1     116.052 159.125 112.463  1.00  0.00     0.033 A 
ATOM     13  C   UNL     1     116.737 158.397 111.473  1.00  0.00     0.026 A 
ATOM     14  C   UNL     1     116.470 156.923 111.403  1.00  0.00     0.077 C 
ATOM     15  N   UNL     1     116.326 156.231 110.325  1.00  0.00    -0.278 NA
ATOM     16  C   UNL     1     116.404 156.893 109.035  1.00  0.00     0.198 C 
ENDROOT
BRANCH  14  17
ATOM     17  C   UNL     1     116.396 156.180 112.686  1.00  0.00     0.036 A 
ATOM     18  C   UNL     1     115.200 155.557 113.060  1.00  0.00     0.013 A 
ATOM     19  C   UNL     1     117.511 156.115 113.521  1.00  0.00     0.132 A 
ATOM     20  C   UNL     1     115.134 154.865 114.271  1.00  0.00     0.001 A 
ATOM     21  C   UNL     1     117.445 155.423 114.727  1.00  0.00     0.040 A 
ATOM     22  C   UNL     1     116.255 154.797 115.103  1.00  0.00     0.003 A 
ATOM     23  F   UNL     1     118.676 156.672 113.161  1.00  0.00    -0.206 F 
ENDBRANCH  14  17
TORSDOF 1
ENDMDL
MODEL 6
REMARK VINA RESULT:    -8.564      2.315      4.710
REMARK INTER + INTRA:          -8.826
REMARK INTER:                  -9.661
REMARK INTRA:                   0.836
REMARK UNBOUND:                 0.239
REMARK SMILES Cc1ncc2n1-c1ccc(Cl)cc1C(c1ccccc1F)=NC2
REMARK SMILES IDX 1 1 2 2 3 3 4 4 5 5 6 6 7 7 8 8 9 9 10 10 11 11 12 12 13 13
REMARK SMILES IDX 14 14 22 15 23 16 15 17 16 18 20 19 17 20 19 21 18 22 21 23
REMARK H PARENT
ROOT
ATOM      1  C   UNL     1     117.822 154.898 112.857  1.00  0.00     0.088 C 
ATOM      2  C   UNL     1     117.433 156.333 112.863  1.00  0.00     0.110 A 
ATOM      3  N   UNL     1     117.252 157.026 113.972  1.00  0.00    -0.241 NA
ATOM      4  C   UNL     1     117.073 158.319 113.582  1.00  0.00     0.137 A 
ATOM      5  C   UNL     1     117.115 158.425 112.213  1.00  0.00     0.064 A 
ATOM      6  N   UNL     1     117.319 157.146 111.738  1.00  0.00    -0.298 N 
ATOM      7  C   UNL     1     117.347 156.789 110.361  1.00  0.00     0.057 A 
ATOM      8  C   UNL     1     116.799 155.561 109.959  1.00  0.00     0.029 A 
ATOM      9  C   UNL     1     116.764 155.207 108.608  1.00  0.00     0.023 A 
ATOM     10  C   UNL     1     117.265 156.082 107.650  1.00  0.00     0.041 A 
ATOM     11  Cl  UNL     1     117.211 155.649 105.987  1.00  0.00    -0.084 Cl
ATOM     12  C   UNL     1     117.808 157.306 108.029  1.00  0.00     0.033 A 
ATOM     13  C   UNL     1     117.862 157.670 109.387  1.00  0.00     0.026 A 
ATOM     14  C   UNL     1     118.555 158.957 109.722  1.00  0.00     0.077 C 
ATOM     15  N   UNL     1     118.160 159.824 110.590  1.00  0.00    -0.278 NA
ATOM     16  C   UNL     1     116.931 159.590 111.326  1.00  0.00     0.198 C 
ENDROOT
BRANCH  14  17
ATOM     17  C   UNL     1     119.828 159.252 109.018  1.00  0.00     0.036 A 
ATOM     18  C   UNL     1     120.367 158.310 108.133  1.00  0.00     0.013 A 
ATOM     19  C   UNL     1     120.492 160.456 109.248  1.00  0.00     0.132 A 
ATOM     20  C   UNL     1     121.568 158.589 107.479  1.00  0.00     0.001 A 
ATOM     21  C   UNL     1     121.689 160.734 108.594  1.00  0.00     0.040 A 
ATOM     22  C   UNL     1     122.227 159.799 107.708  1.00  0.00     0.003 A 
ATOM     23  F   UNL     1     119.971 161.386 110.062  1.00  0.00    -0.206 F 
ENDBRANCH  14  17
TORSDOF 1
ENDMDL
MODEL 7
REMARK VINA RESULT:    -7.262      4.170      6.575
REMARK INTER + INTRA:          -7.447
REMARK INTER:                  -6.917
REMARK INTRA:                  -0.531
REMARK UNBOUND:                 0.239
REMARK SMILES Cc1ncc2n1-c1ccc(Cl)cc1C(c1ccccc1F)=NC2
REMARK SMILES IDX 1 1 2 2 3 3 4 4 5 5 6 6 7 7 8 8 9 9 10 10 11 11 12 12 13 13
REMARK SMILES IDX 14 14 22 15 23 16 15 17 16 18 20 19 17 20 19 21 18 22 21 23
REMARK H PARENT
ROOT
ATOM      1  C   UNL     1     112.012 158.110 116.691  1.00  0.00     0.088 C 
ATOM      2  C   UNL     1     112.482 156.920 115.934  1.00  0.00     0.110 A 
ATOM      3  N   UNL     1     111.662 156.062 115.356  1.00  0.00    -0.241 NA
ATOM      4  C   UNL     1     112.450 155.219 114.632  1.00  0.00     0.137 A 
ATOM      5  C   UNL     1     113.777 155.540 114.785  1.00  0.00     0.064 A 
ATOM      6  N   UNL     1     113.811 156.618 115.645  1.00  0.00    -0.298 N 
ATOM      7  C   UNL     1     115.001 157.222 116.137  1.00  0.00     0.057 A 
ATOM      8  C   UNL     1     115.033 157.700 117.458  1.00  0.00     0.029 A 
ATOM      9  C   UNL     1     116.203 158.248 117.986  1.00  0.00     0.023 A 
ATOM     10  C   UNL     1     117.351 158.313 117.205  1.00  0.00     0.041 A 
ATOM     11  Cl  UNL     1     118.794 158.980 117.862  1.00  0.00    -0.084 Cl
ATOM     12  C   UNL     1     117.341 157.841 115.896  1.00  0.00     0.033 A 
ATOM     13  C   UNL     1     116.166 157.298 115.346  1.00  0.00     0.026 A 
ATOM     14  C   UNL     1     116.207 156.907 113.899  1.00  0.00     0.077 C 
ATOM     15  N   UNL     1     115.683 155.846 113.388  1.00  0.00    -0.278 NA
ATOM     16  C   UNL     1     114.995 154.902 114.250  1.00  0.00     0.198 C 
ENDROOT
BRANCH  14  17
ATOM     17  C   UNL     1     116.881 157.837 112.958  1.00  0.00     0.036 A 
ATOM     18  C   UNL     1     117.971 157.390 112.202  1.00  0.00     0.013 A 
ATOM     19  C   UNL     1     116.437 159.153 112.838  1.00  0.00     0.132 A 
ATOM     20  C   UNL     1     118.606 158.270 111.323  1.00  0.00     0.001 A 
ATOM     21  C   UNL     1     117.069 160.029 111.960  1.00  0.00     0.040 A 
ATOM     22  C   UNL     1     118.155 159.587 111.202  1.00  0.00     0.003 A 
ATOM     23  F   UNL     1     115.370 159.587 113.524  1.00  0.00    -0.206 F 
ENDBRANCH  14  17
TORSDOF 1
ENDMDL
MODEL 8
REMARK VINA RESULT:    -6.941      4.432      6.243
REMARK INTER + INTRA:          -7.108
REMARK INTER:                  -6.656
REMARK INTRA:                  -0.452
REMARK UNBOUND:                 0.239
REMARK SMILES Cc1ncc2n1-c1ccc(Cl)cc1C(c1ccccc1F)=NC2
REMARK SMILES IDX 1 1 2 2 3 3 4 4 5 5 6 6 7 7 8 8 9 9 10 10 11 11 12 12 13 13
REMARK SMILES IDX 14 14 22 15 23 16 15 17 16 18 20 19 17 20 19 21 18 22 21 23
REMARK H PARENT
ROOT
ATOM      1  C   UNL     1     112.640 161.060 113.425  1.00  0.00     0.088 C 
ATOM      2  C   UNL     1     113.290 161.048 114.762  1.00  0.00     0.110 A 
ATOM      3  N   UNL     1     112.743 161.593 115.834  1.00  0.00    -0.241 NA
ATOM      4  C   UNL     1     113.540 161.241 116.881  1.00  0.00     0.137 A 
ATOM      5  C   UNL     1     114.608 160.492 116.451  1.00  0.00     0.064 A 
ATOM      6  N   UNL     1     114.472 160.385 115.083  1.00  0.00    -0.298 N 
ATOM      7  C   UNL     1     115.413 159.753 114.223  1.00  0.00     0.057 A 
ATOM      8  C   UNL     1     115.653 160.296 112.951  1.00  0.00     0.029 A 
ATOM      9  C   UNL     1     116.610 159.730 112.106  1.00  0.00     0.023 A 
ATOM     10  C   UNL     1     117.341 158.626 112.530  1.00  0.00     0.041 A 
ATOM     11  Cl  UNL     1     118.526 157.936 111.491  1.00  0.00    -0.084 Cl
ATOM     12  C   UNL     1     117.121 158.076 113.789  1.00  0.00     0.033 A 
ATOM     13  C   UNL     1     116.151 158.628 114.646  1.00  0.00     0.026 A 
ATOM     14  C   UNL     1     115.901 157.917 115.942  1.00  0.00     0.077 C 
ATOM     15  N   UNL     1     115.713 158.478 117.087  1.00  0.00    -0.278 NA
ATOM     16  C   UNL     1     115.753 159.925 117.190  1.00  0.00     0.198 C 
ENDROOT
BRANCH  14  17
ATOM     17  C   UNL     1     115.829 156.435 115.906  1.00  0.00     0.036 A 
ATOM     18  C   UNL     1     116.660 155.679 116.743  1.00  0.00     0.013 A 
ATOM     19  C   UNL     1     114.948 155.798 115.034  1.00  0.00     0.132 A 
ATOM     20  C   UNL     1     116.593 154.285 116.701  1.00  0.00     0.001 A 
ATOM     21  C   UNL     1     114.881 154.408 114.994  1.00  0.00     0.040 A 
ATOM     22  C   UNL     1     115.705 153.651 115.828  1.00  0.00     0.003 A 
ATOM     23  F   UNL     1     114.117 156.506 114.254  1.00  0.00    -0.206 F 
ENDBRANCH  14  17
TORSDOF 1
ENDMDL
MODEL 9
REMARK VINA RESULT:    -6.875      4.976      7.240
REMARK INTER + INTRA:          -7.038
REMARK INTER:                  -6.407
REMARK INTRA:                  -0.631
REMARK UNBOUND:                 0.239
REMARK SMILES Cc1ncc2n1-c1ccc(Cl)cc1C(c1ccccc1F)=NC2
REMARK SMILES IDX 1 1 2 2 3 3 4 4 5 5 6 6 7 7 8 8 9 9 10 10 11 11 12 12 13 13
REMARK SMILES IDX 14 14 22 15 23 16 15 17 16 18 20 19 17 20 19 21 18 22 21 23
REMARK H PARENT
ROOT
ATOM      1  C   UNL     1     116.052 165.047 110.825  1.00  0.00     0.088 C 
ATOM      2  C   UNL     1     116.082 165.041 112.311  1.00  0.00     0.110 A 
ATOM      3  N   UNL     1     115.979 166.137 113.039  1.00  0.00    -0.241 NA
ATOM      4  C   UNL     1     115.880 165.721 114.333  1.00  0.00     0.137 A 
ATOM      5  C   UNL     1     115.951 164.351 114.411  1.00  0.00     0.064 A 
ATOM      6  N   UNL     1     116.110 163.904 113.116  1.00  0.00    -0.298 N 
ATOM      7  C   UNL     1     116.306 162.544 112.749  1.00  0.00     0.057 A 
ATOM      8  C   UNL     1     117.171 162.238 111.686  1.00  0.00     0.029 A 
ATOM      9  C   UNL     1     117.426 160.910 111.337  1.00  0.00     0.023 A 
ATOM     10  C   UNL     1     116.829 159.879 112.054  1.00  0.00     0.041 A 
ATOM     11  Cl  UNL     1     117.152 158.244 111.630  1.00  0.00    -0.084 Cl
ATOM     12  C   UNL     1     115.972 160.162 113.114  1.00  0.00     0.033 A 
ATOM     13  C   UNL     1     115.696 161.495 113.468  1.00  0.00     0.026 A 
ATOM     14  C   UNL     1     114.684 161.718 114.552  1.00  0.00     0.077 C 
ATOM     15  N   UNL     1     114.770 162.590 115.498  1.00  0.00    -0.278 NA
ATOM     16  C   UNL     1     115.939 163.447 115.576  1.00  0.00     0.198 C 
ENDROOT
BRANCH  14  17
ATOM     17  C   UNL     1     113.454 160.887 114.522  1.00  0.00     0.036 A 
ATOM     18  C   UNL     1     112.426 161.200 113.624  1.00  0.00     0.013 A 
ATOM     19  C   UNL     1     113.319 159.807 115.393  1.00  0.00     0.132 A 
ATOM     20  C   UNL     1     111.269 160.419 113.604  1.00  0.00     0.001 A 
ATOM     21  C   UNL     1     112.166 159.028 115.371  1.00  0.00     0.040 A 
ATOM     22  C   UNL     1     111.140 159.334 114.475  1.00  0.00     0.003 A 
ATOM     23  F   UNL     1     114.310 159.468 116.231  1.00  0.00    -0.206 F 
ENDBRANCH  14  17
TORSDOF 1
ENDMDL
