MODEL 1
REMARK VINA RESULT:    -6.861      0.000      0.000
REMARK INTER + INTRA:          -8.066
REMARK INTER:                  -7.463
REMARK INTRA:                  -0.604
REMARK UNBOUND:                -0.604
REMARK SMILES O=C1Nc2ccc(Cl)cc2C(c2ccccc2Cl)=NC1O
REMARK SMILES IDX 1 1 2 2 3 3 4 4 5 5 6 6 7 7 8 8 9 9 10 10 11 11 19 12 20 13
REMARK SMILES IDX 21 15 12 17 13 18 17 19 14 20 16 21 15 22 18 23
REMARK H PARENT 3 14 21 16
ROOT
ATOM      1  O   UNL     1     145.808  96.651 133.649  1.00  0.00    -0.269 OA
ATOM      2  C   UNL     1     144.770  97.172 134.068  1.00  0.00     0.276 C 
ATOM      3  N   UNL     1     144.178  96.655 135.192  1.00  0.00    -0.321 N 
ATOM      4  C   UNL     1     143.003  97.095 135.818  1.00  0.00     0.050 A 
ATOM      5  C   UNL     1     142.890  96.795 137.185  1.00  0.00     0.028 A 
ATOM      6  C   UNL     1     141.791  97.234 137.926  1.00  0.00     0.023 A 
ATOM      7  C   UNL     1     140.789  97.966 137.300  1.00  0.00     0.041 A 
ATOM      8  Cl  UNL     1     139.437  98.515 138.210  1.00  0.00    -0.084 Cl
ATOM      9  C   UNL     1     140.860  98.235 135.936  1.00  0.00     0.033 A 
ATOM     10  C   UNL     1     141.956  97.783 135.180  1.00  0.00     0.026 A 
ATOM     11  C   UNL     1     141.886  97.913 133.693  1.00  0.00     0.079 C 
ATOM     12  N   UNL     1     142.865  98.169 132.898  1.00  0.00    -0.243 NA
ATOM     13  C   UNL     1     144.179  98.459 133.451  1.00  0.00     0.323 C 
ATOM     14  H   UNL     1     144.740  95.944 135.642  1.00  0.00     0.170 HD
ENDROOT
BRANCH  13  15
ATOM     15  O   UNL     1     144.241  99.561 134.347  1.00  0.00    -0.364 OA
ATOM     16  H   UNL     1     144.729  99.240 135.123  1.00  0.00     0.213 HD
ENDBRANCH  13  15
BRANCH  11  17
ATOM     17  C   UNL     1     140.571  97.656 133.048  1.00  0.00     0.019 A 
ATOM     18  C   UNL     1     140.178  96.321 132.874  1.00  0.00     0.012 A 
ATOM     19  C   UNL     1     139.751  98.698 132.602  1.00  0.00     0.050 A 
ATOM     20  C   UNL     1     138.960  96.032 132.261  1.00  0.00     0.001 A 
ATOM     21  C   UNL     1     138.531  98.398 131.990  1.00  0.00     0.021 A 
ATOM     22  C   UNL     1     138.138  97.068 131.819  1.00  0.00     0.002 A 
ATOM     23  Cl  UNL     1     140.156 100.360 132.830  1.00  0.00    -0.084 Cl
ENDBRANCH  11  17
TORSDOF 2
ENDMDL
MODEL 2
REMARK VINA RESULT:    -6.787      2.958      4.459
REMARK INTER + INTRA:          -7.986
REMARK INTER:                  -7.497
REMARK INTRA:                  -0.489
REMARK UNBOUND:                -0.604
REMARK SMILES O=C1Nc2ccc(Cl)cc2C(c2ccccc2Cl)=NC1O
REMARK SMILES IDX 1 1 2 2 3 3 4 4 5 5 6 6 7 7 8 8 9 9 10 10 11 11 19 12 20 13
REMARK SMILES IDX 21 15 12 17 13 18 17 19 14 20 16 21 15 22 18 23
REMARK H PARENT 3 14 21 16
ROOT
ATOM      1  O   UNL     1     138.452 100.409 133.588  1.00  0.00    -0.269 OA
ATOM      2  C   UNL     1     139.030  99.379 133.947  1.00  0.00     0.276 C 
ATOM      3  N   UNL     1     139.667  99.367 135.162  1.00  0.00    -0.321 N 
ATOM      4  C   UNL     1     140.379  98.307 135.743  1.00  0.00     0.050 A 
ATOM      5  C   UNL     1     140.469  98.328 137.144  1.00  0.00     0.028 A 
ATOM      6  C   UNL     1     141.102  97.293 137.835  1.00  0.00     0.023 A 
ATOM      7  C   UNL     1     141.665  96.238 137.128  1.00  0.00     0.041 A 
ATOM      8  Cl  UNL     1     142.440  94.959 137.976  1.00  0.00    -0.084 Cl
ATOM      9  C   UNL     1     141.627  96.223 135.736  1.00  0.00     0.033 A 
ATOM     10  C   UNL     1     141.003  97.267 135.032  1.00  0.00     0.026 A 
ATOM     11  C   UNL     1     141.170  97.313 133.548  1.00  0.00     0.079 C 
ATOM     12  N   UNL     1     140.296  97.703 132.688  1.00  0.00    -0.243 NA
ATOM     13  C   UNL     1     138.960  98.063 133.140  1.00  0.00     0.323 C 
ATOM     14  H   UNL     1     139.491 100.201 135.707  1.00  0.00     0.170 HD
ENDROOT
BRANCH  13  15
ATOM     15  O   UNL     1     138.249  97.046 133.833  1.00  0.00    -0.364 OA
ATOM     16  H   UNL     1     138.393  97.223 134.777  1.00  0.00     0.213 HD
ENDBRANCH  13  15
BRANCH  11  17
ATOM     17  C   UNL     1     142.501  96.936 133.001  1.00  0.00     0.019 A 
ATOM     18  C   UNL     1     142.567  95.822 132.152  1.00  0.00     0.012 A 
ATOM     19  C   UNL     1     143.662  97.644 133.329  1.00  0.00     0.050 A 
ATOM     20  C   UNL     1     143.795  95.423 131.626  1.00  0.00     0.001 A 
ATOM     21  C   UNL     1     144.888  97.236 132.797  1.00  0.00     0.021 A 
ATOM     22  C   UNL     1     144.954  96.129 131.948  1.00  0.00     0.002 A 
ATOM     23  Cl  UNL     1     143.640  99.050 134.330  1.00  0.00    -0.084 Cl
ENDBRANCH  11  17
TORSDOF 2
ENDMDL
MODEL 3
REMARK VINA RESULT:    -6.662      2.489      4.406
REMARK INTER + INTRA:          -7.850
REMARK INTER:                  -7.250
REMARK INTRA:                  -0.600
REMARK UNBOUND:                -0.604
REMARK SMILES O=C1Nc2ccc(Cl)cc2C(c2ccccc2Cl)=NC1O
REMARK SMILES IDX 1 1 2 2 3 3 4 4 5 5 6 6 7 7 8 8 9 9 10 10 11 11 19 12 20 13
REMARK SMILES IDX 21 15 12 17 13 18 17 19 14 20 16 21 15 22 18 23
REMARK H PARENT 3 14 21 16
ROOT
ATOM      1  O   UNL     1     140.798  97.810 137.755  1.00  0.00    -0.269 OA
ATOM      2  C   UNL     1     140.988  98.019 136.554  1.00  0.00     0.276 C 
ATOM      3  N   UNL     1     140.084  98.785 135.863  1.00  0.00    -0.321 N 
ATOM      4  C   UNL     1     140.117  99.131 134.505  1.00  0.00     0.050 A 
ATOM      5  C   UNL     1     139.435 100.308 134.157  1.00  0.00     0.028 A 
ATOM      6  C   UNL     1     139.449 100.781 132.844  1.00  0.00     0.023 A 
ATOM      7  C   UNL     1     140.134 100.072 131.865  1.00  0.00     0.041 A 
ATOM      8  Cl  UNL     1     140.160 100.656 130.248  1.00  0.00    -0.084 Cl
ATOM      9  C   UNL     1     140.778  98.879 132.181  1.00  0.00     0.033 A 
ATOM     10  C   UNL     1     140.756  98.388 133.497  1.00  0.00     0.026 A 
ATOM     11  C   UNL     1     141.278  97.009 133.742  1.00  0.00     0.079 C 
ATOM     12  N   UNL     1     141.914  96.602 134.784  1.00  0.00    -0.243 NA
ATOM     13  C   UNL     1     142.269  97.557 135.824  1.00  0.00     0.323 C 
ATOM     14  H   UNL     1     139.388  99.210 136.464  1.00  0.00     0.170 HD
ENDROOT
BRANCH  13  15
ATOM     15  O   UNL     1     143.073  98.652 135.405  1.00  0.00    -0.364 OA
ATOM     16  H   UNL     1     143.978  98.433 135.680  1.00  0.00     0.213 HD
ENDBRANCH  13  15
BRANCH  11  17
ATOM     17  C   UNL     1     140.979  95.975 132.716  1.00  0.00     0.019 A 
ATOM     18  C   UNL     1     142.031  95.545 131.896  1.00  0.00     0.012 A 
ATOM     19  C   UNL     1     139.691  95.455 132.544  1.00  0.00     0.050 A 
ATOM     20  C   UNL     1     141.795  94.588 130.910  1.00  0.00     0.001 A 
ATOM     21  C   UNL     1     139.464  94.496 131.553  1.00  0.00     0.021 A 
ATOM     22  C   UNL     1     140.514  94.065 130.738  1.00  0.00     0.002 A 
ATOM     23  Cl  UNL     1     138.365  95.909 133.552  1.00  0.00    -0.084 Cl
ENDBRANCH  11  17
TORSDOF 2
ENDMDL
MODEL 4
REMARK VINA RESULT:    -6.579      3.365      4.497
REMARK INTER + INTRA:          -7.760
REMARK INTER:                  -7.157
REMARK INTRA:                  -0.603
REMARK UNBOUND:                -0.604
REMARK SMILES O=C1Nc2ccc(Cl)cc2C(c2ccccc2Cl)=NC1O
REMARK SMILES IDX 1 1 2 2 3 3 4 4 5 5 6 6 7 7 8 8 9 9 10 10 11 11 19 12 20 13
REMARK SMILES IDX 21 15 12 17 13 18 17 19 14 20 16 21 15 22 18 23
REMARK H PARENT 3 14 21 16
ROOT
ATOM      1  O   UNL     1     144.554  97.052 139.612  1.00  0.00    -0.269 OA
ATOM      2  C   UNL     1     143.986  96.518 138.655  1.00  0.00     0.276 C 
ATOM      3  N   UNL     1     144.746  96.021 137.627  1.00  0.00    -0.321 N 
ATOM      4  C   UNL     1     144.295  95.390 136.459  1.00  0.00     0.050 A 
ATOM      5  C   UNL     1     145.208  94.518 135.845  1.00  0.00     0.028 A 
ATOM      6  C   UNL     1     144.849  93.789 134.710  1.00  0.00     0.023 A 
ATOM      7  C   UNL     1     143.577  93.939 134.171  1.00  0.00     0.041 A 
ATOM      8  Cl  UNL     1     143.128  93.038 132.777  1.00  0.00    -0.084 Cl
ATOM      9  C   UNL     1     142.673  94.833 134.738  1.00  0.00     0.033 A 
ATOM     10  C   UNL     1     143.032  95.581 135.873  1.00  0.00     0.026 A 
ATOM     11  C   UNL     1     142.112  96.672 136.316  1.00  0.00     0.079 C 
ATOM     12  N   UNL     1     141.873  97.030 137.529  1.00  0.00    -0.243 NA
ATOM     13  C   UNL     1     142.460  96.276 138.626  1.00  0.00     0.323 C 
ATOM     14  H   UNL     1     145.738  96.044 137.824  1.00  0.00     0.170 HD
ENDROOT
BRANCH  13  15
ATOM     15  O   UNL     1     142.136  94.892 138.665  1.00  0.00    -0.364 OA
ATOM     16  H   UNL     1     141.240  94.843 139.038  1.00  0.00     0.213 HD
ENDBRANCH  13  15
BRANCH  11  17
ATOM     17  C   UNL     1     141.450  97.478 135.256  1.00  0.00     0.019 A 
ATOM     18  C   UNL     1     140.085  97.259 135.024  1.00  0.00     0.012 A 
ATOM     19  C   UNL     1     142.156  98.412 134.489  1.00  0.00     0.050 A 
ATOM     20  C   UNL     1     139.427  97.981 134.030  1.00  0.00     0.001 A 
ATOM     21  C   UNL     1     141.487  99.131 133.495  1.00  0.00     0.021 A 
ATOM     22  C   UNL     1     140.126  98.915 133.267  1.00  0.00     0.002 A 
ATOM     23  Cl  UNL     1     143.825  98.761 134.758  1.00  0.00    -0.084 Cl
ENDBRANCH  11  17
TORSDOF 2
ENDMDL
MODEL 5
REMARK VINA RESULT:    -6.458      2.829      5.322
REMARK INTER + INTRA:          -7.628
REMARK INTER:                  -7.038
REMARK INTRA:                  -0.590
REMARK UNBOUND:                -0.604
REMARK SMILES O=C1Nc2ccc(Cl)cc2C(c2ccccc2Cl)=NC1O
REMARK SMILES IDX 1 1 2 2 3 3 4 4 5 5 6 6 7 7 8 8 9 9 10 10 11 11 19 12 20 13
REMARK SMILES IDX 21 15 12 17 13 18 17 19 14 20 16 21 15 22 18 23
REMARK H PARENT 3 14 21 16
ROOT
ATOM      1  O   UNL     1     138.806  95.227 131.814  1.00  0.00    -0.269 OA
ATOM      2  C   UNL     1     139.502  96.006 132.471  1.00  0.00     0.276 C 
ATOM      3  N   UNL     1     140.821  96.164 132.129  1.00  0.00    -0.321 N 
ATOM      4  C   UNL     1     141.772  96.989 132.748  1.00  0.00     0.050 A 
ATOM      5  C   UNL     1     142.847  97.393 131.942  1.00  0.00     0.028 A 
ATOM      6  C   UNL     1     143.823  98.262 132.434  1.00  0.00     0.023 A 
ATOM      7  C   UNL     1     143.737  98.722 133.742  1.00  0.00     0.041 A 
ATOM      8  Cl  UNL     1     144.933  99.799 134.349  1.00  0.00    -0.084 Cl
ATOM      9  C   UNL     1     142.703  98.297 134.572  1.00  0.00     0.033 A 
ATOM     10  C   UNL     1     141.725  97.411 134.089  1.00  0.00     0.026 A 
ATOM     11  C   UNL     1     140.763  96.823 135.069  1.00  0.00     0.079 C 
ATOM     12  N   UNL     1     139.523  96.548 134.859  1.00  0.00    -0.243 NA
ATOM     13  C   UNL     1     138.918  96.904 133.584  1.00  0.00     0.323 C 
ATOM     14  H   UNL     1     141.064  95.692 131.268  1.00  0.00     0.170 HD
ENDROOT
BRANCH  13  15
ATOM     15  O   UNL     1     138.968  98.283 133.243  1.00  0.00    -0.364 OA
ATOM     16  H   UNL     1     138.760  98.763 134.061  1.00  0.00     0.213 HD
ENDBRANCH  13  15
BRANCH  11  17
ATOM     17  C   UNL     1     141.295  96.452 136.407  1.00  0.00     0.019 A 
ATOM     18  C   UNL     1     142.093  95.303 136.497  1.00  0.00     0.012 A 
ATOM     19  C   UNL     1     141.001  97.199 137.553  1.00  0.00     0.050 A 
ATOM     20  C   UNL     1     142.603  94.908 137.733  1.00  0.00     0.001 A 
ATOM     21  C   UNL     1     141.517  96.795 138.787  1.00  0.00     0.021 A 
ATOM     22  C   UNL     1     142.315  95.652 138.877  1.00  0.00     0.002 A 
ATOM     23  Cl  UNL     1     140.065  98.648 137.501  1.00  0.00    -0.084 Cl
ENDBRANCH  11  17
TORSDOF 2
ENDMDL
MODEL 6
REMARK VINA RESULT:    -6.184      3.522      4.852
REMARK INTER + INTRA:          -7.330
REMARK INTER:                  -6.746
REMARK INTRA:                  -0.585
REMARK UNBOUND:                -0.604
REMARK SMILES O=C1Nc2ccc(Cl)cc2C(c2ccccc2Cl)=NC1O
REMARK SMILES IDX 1 1 2 2 3 3 4 4 5 5 6 6 7 7 8 8 9 9 10 10 11 11 19 12 20 13
REMARK SMILES IDX 21 15 12 17 13 18 17 19 14 20 16 21 15 22 18 23
REMARK H PARENT 3 14 21 16
ROOT
ATOM      1  O   UNL     1     144.428  96.966 139.904  1.00  0.00    -0.269 OA
ATOM      2  C   UNL     1     144.044  96.400 138.877  1.00  0.00     0.276 C 
ATOM      3  N   UNL     1     144.979  95.938 137.986  1.00  0.00    -0.321 N 
ATOM      4  C   UNL     1     144.748  95.279 136.769  1.00  0.00     0.050 A 
ATOM      5  C   UNL     1     145.789  94.453 136.316  1.00  0.00     0.028 A 
ATOM      6  C   UNL     1     145.648  93.702 135.147  1.00  0.00     0.023 A 
ATOM      7  C   UNL     1     144.469  93.783 134.416  1.00  0.00     0.041 A 
ATOM      8  Cl  UNL     1     144.289  92.855 132.980  1.00  0.00    -0.084 Cl
ATOM      9  C   UNL     1     143.444  94.632 134.824  1.00  0.00     0.033 A 
ATOM     10  C   UNL     1     143.584  95.403 135.992  1.00  0.00     0.026 A 
ATOM     11  C   UNL     1     142.552  96.446 136.273  1.00  0.00     0.079 C 
ATOM     12  N   UNL     1     142.110  96.797 137.429  1.00  0.00    -0.243 NA
ATOM     13  C   UNL     1     142.555  96.079 138.614  1.00  0.00     0.323 C 
ATOM     14  H   UNL     1     145.926  96.013 138.335  1.00  0.00     0.170 HD
ENDROOT
BRANCH  13  15
ATOM     15  O   UNL     1     142.299  94.680 138.620  1.00  0.00    -0.364 OA
ATOM     16  H   UNL     1     142.836  94.313 137.899  1.00  0.00     0.213 HD
ENDBRANCH  13  15
BRANCH  11  17
ATOM     17  C   UNL     1     142.025  97.213 135.113  1.00  0.00     0.019 A 
ATOM     18  C   UNL     1     142.765  98.317 134.668  1.00  0.00     0.012 A 
ATOM     19  C   UNL     1     140.820  96.872 134.489  1.00  0.00     0.050 A 
ATOM     20  C   UNL     1     142.301  99.074 133.593  1.00  0.00     0.001 A 
ATOM     21  C   UNL     1     140.364  97.636 133.412  1.00  0.00     0.021 A 
ATOM     22  C   UNL     1     141.103  98.734 132.965  1.00  0.00     0.002 A 
ATOM     23  Cl  UNL     1     139.887  95.497 134.959  1.00  0.00    -0.084 Cl
ENDBRANCH  11  17
TORSDOF 2
ENDMDL
MODEL 7
REMARK VINA RESULT:    -6.067      3.329      5.590
REMARK INTER + INTRA:          -7.203
REMARK INTER:                  -6.603
REMARK INTRA:                  -0.600
REMARK UNBOUND:                -0.604
REMARK SMILES O=C1Nc2ccc(Cl)cc2C(c2ccccc2Cl)=NC1O
REMARK SMILES IDX 1 1 2 2 3 3 4 4 5 5 6 6 7 7 8 8 9 9 10 10 11 11 19 12 20 13
REMARK SMILES IDX 21 15 12 17 13 18 17 19 14 20 16 21 15 22 18 23
REMARK H PARENT 3 14 21 16
ROOT
ATOM      1  O   UNL     1     140.488  97.215 130.235  1.00  0.00    -0.269 OA
ATOM      2  C   UNL     1     141.487  97.234 130.959  1.00  0.00     0.276 C 
ATOM      3  N   UNL     1     142.376  96.192 130.889  1.00  0.00    -0.321 N 
ATOM      4  C   UNL     1     143.558  96.025 131.625  1.00  0.00     0.050 A 
ATOM      5  C   UNL     1     144.538  95.214 131.031  1.00  0.00     0.028 A 
ATOM      6  C   UNL     1     145.777  95.024 131.645  1.00  0.00     0.023 A 
ATOM      7  C   UNL     1     146.040  95.632 132.866  1.00  0.00     0.041 A 
ATOM      8  Cl  UNL     1     147.568  95.406 133.622  1.00  0.00    -0.084 Cl
ATOM      9  C   UNL     1     145.064  96.403 133.493  1.00  0.00     0.033 A 
ATOM     10  C   UNL     1     143.809  96.587 132.888  1.00  0.00     0.026 A 
ATOM     11  C   UNL     1     142.732  97.243 133.690  1.00  0.00     0.079 C 
ATOM     12  N   UNL     1     141.820  98.036 133.249  1.00  0.00    -0.243 NA
ATOM     13  C   UNL     1     141.842  98.445 131.852  1.00  0.00     0.323 C 
ATOM     14  H   UNL     1     142.168  95.547 130.137  1.00  0.00     0.170 HD
ENDROOT
BRANCH  13  15
ATOM     15  O   UNL     1     143.028  99.100 131.420  1.00  0.00    -0.364 OA
ATOM     16  H   UNL     1     142.881 100.045 131.590  1.00  0.00     0.213 HD
ENDBRANCH  13  15
BRANCH  11  17
ATOM     17  C   UNL     1     142.652  96.898 135.135  1.00  0.00     0.019 A 
ATOM     18  C   UNL     1     143.056  97.869 136.062  1.00  0.00     0.012 A 
ATOM     19  C   UNL     1     142.215  95.643 135.572  1.00  0.00     0.050 A 
ATOM     20  C   UNL     1     143.013  97.586 137.426  1.00  0.00     0.001 A 
ATOM     21  C   UNL     1     142.174  95.368 136.941  1.00  0.00     0.021 A 
ATOM     22  C   UNL     1     142.573  96.337 137.865  1.00  0.00     0.002 A 
ATOM     23  Cl  UNL     1     141.661  94.423 134.484  1.00  0.00    -0.084 Cl
ENDBRANCH  11  17
TORSDOF 2
ENDMDL
MODEL 8
REMARK VINA RESULT:    -6.055      3.166      4.242
REMARK INTER + INTRA:          -7.190
REMARK INTER:                  -6.762
REMARK INTRA:                  -0.428
REMARK UNBOUND:                -0.604
REMARK SMILES O=C1Nc2ccc(Cl)cc2C(c2ccccc2Cl)=NC1O
REMARK SMILES IDX 1 1 2 2 3 3 4 4 5 5 6 6 7 7 8 8 9 9 10 10 11 11 19 12 20 13
REMARK SMILES IDX 21 15 12 17 13 18 17 19 14 20 16 21 15 22 18 23
REMARK H PARENT 3 14 21 16
ROOT
ATOM      1  O   UNL     1     144.984  96.120 137.848  1.00  0.00    -0.269 OA
ATOM      2  C   UNL     1     144.072  95.774 137.093  1.00  0.00     0.276 C 
ATOM      3  N   UNL     1     144.389  95.157 135.909  1.00  0.00    -0.321 N 
ATOM      4  C   UNL     1     143.506  94.698 134.921  1.00  0.00     0.050 A 
ATOM      5  C   UNL     1     143.989  93.665 134.103  1.00  0.00     0.028 A 
ATOM      6  C   UNL     1     143.178  93.089 133.124  1.00  0.00     0.023 A 
ATOM      7  C   UNL     1     141.880  93.553 132.946  1.00  0.00     0.041 A 
ATOM      8  Cl  UNL     1     140.875  92.841 131.746  1.00  0.00    -0.084 Cl
ATOM      9  C   UNL     1     141.398  94.608 133.717  1.00  0.00     0.033 A 
ATOM     10  C   UNL     1     142.214  95.203 134.694  1.00  0.00     0.026 A 
ATOM     11  C   UNL     1     141.729  96.458 135.345  1.00  0.00     0.079 C 
ATOM     12  N   UNL     1     141.916  96.810 136.569  1.00  0.00    -0.243 NA
ATOM     13  C   UNL     1     142.581  95.894 137.483  1.00  0.00     0.323 C 
ATOM     14  H   UNL     1     145.374  94.941 135.830  1.00  0.00     0.170 HD
ENDROOT
BRANCH  13  15
ATOM     15  O   UNL     1     141.964  94.623 137.640  1.00  0.00    -0.364 OA
ATOM     16  H   UNL     1     141.654  94.594 138.560  1.00  0.00     0.213 HD
ENDBRANCH  13  15
BRANCH  11  17
ATOM     17  C   UNL     1     141.017  97.440 134.485  1.00  0.00     0.019 A 
ATOM     18  C   UNL     1     139.629  97.299 134.344  1.00  0.00     0.012 A 
ATOM     19  C   UNL     1     141.695  98.462 133.813  1.00  0.00     0.050 A 
ATOM     20  C   UNL     1     138.921  98.187 133.536  1.00  0.00     0.001 A 
ATOM     21  C   UNL     1     140.977  99.349 133.006  1.00  0.00     0.021 A 
ATOM     22  C   UNL     1     139.593  99.211 132.868  1.00  0.00     0.002 A 
ATOM     23  Cl  UNL     1     143.394  98.718 133.984  1.00  0.00    -0.084 Cl
ENDBRANCH  11  17
TORSDOF 2
ENDMDL
MODEL 9
REMARK VINA RESULT:    -5.652      1.770      2.177
REMARK INTER + INTRA:          -6.751
REMARK INTER:                  -6.151
REMARK INTRA:                  -0.600
REMARK UNBOUND:                -0.604
REMARK SMILES O=C1Nc2ccc(Cl)cc2C(c2ccccc2Cl)=NC1O
REMARK SMILES IDX 1 1 2 2 3 3 4 4 5 5 6 6 7 7 8 8 9 9 10 10 11 11 19 12 20 13
REMARK SMILES IDX 21 15 12 17 13 18 17 19 14 20 16 21 15 22 18 23
REMARK H PARENT 3 14 21 16
ROOT
ATOM      1  O   UNL     1     145.431  94.587 132.537  1.00  0.00    -0.269 OA
ATOM      2  C   UNL     1     144.716  95.330 133.214  1.00  0.00     0.276 C 
ATOM      3  N   UNL     1     144.031  94.802 134.279  1.00  0.00    -0.321 N 
ATOM      4  C   UNL     1     143.170  95.472 135.159  1.00  0.00     0.050 A 
ATOM      5  C   UNL     1     143.024  94.893 136.430  1.00  0.00     0.028 A 
ATOM      6  C   UNL     1     142.238  95.505 137.409  1.00  0.00     0.023 A 
ATOM      7  C   UNL     1     141.581  96.694 137.118  1.00  0.00     0.041 A 
ATOM      8  Cl  UNL     1     140.618  97.454 138.324  1.00  0.00    -0.084 Cl
ATOM      9  C   UNL     1     141.677  97.260 135.850  1.00  0.00     0.033 A 
ATOM     10  C   UNL     1     142.453  96.643 134.854  1.00  0.00     0.026 A 
ATOM     11  C   UNL     1     142.357  97.170 133.460  1.00  0.00     0.079 C 
ATOM     12  N   UNL     1     143.309  97.236 132.596  1.00  0.00    -0.243 NA
ATOM     13  C   UNL     1     144.658  96.858 132.988  1.00  0.00     0.323 C 
ATOM     14  H   UNL     1     144.285  93.841 134.472  1.00  0.00     0.170 HD
ENDROOT
BRANCH  13  15
ATOM     15  O   UNL     1     145.209  97.583 134.080  1.00  0.00    -0.364 OA
ATOM     16  H   UNL     1     145.871  98.178 133.692  1.00  0.00     0.213 HD
ENDBRANCH  13  15
BRANCH  11  17
ATOM     17  C   UNL     1     141.015  97.602 132.986  1.00  0.00     0.019 A 
ATOM     18  C   UNL     1     140.777  98.978 132.864  1.00  0.00     0.012 A 
ATOM     19  C   UNL     1     140.005  96.681 132.690  1.00  0.00     0.050 A 
ATOM     20  C   UNL     1     139.529  99.430 132.438  1.00  0.00     0.001 A 
ATOM     21  C   UNL     1     138.757  97.143 132.262  1.00  0.00     0.021 A 
ATOM     22  C   UNL     1     138.520  98.515 132.137  1.00  0.00     0.002 A 
ATOM     23  Cl  UNL     1     140.250  94.974 132.774  1.00  0.00    -0.084 Cl
ENDBRANCH  11  17
TORSDOF 2
ENDMDL
