MODEL 1
REMARK VINA RESULT:   -10.350      0.000      0.000
REMARK INTER + INTRA:         -12.704
REMARK INTER:                 -12.165
REMARK INTRA:                  -0.539
REMARK UNBOUND:                -0.539
REMARK SMILES Cc1ccc(-c2nc3ccc(C)cn3c2CC(=O)N(C)C)cc1
REMARK SMILES IDX 6 1 7 2 8 3 9 4 10 5 11 6 12 7 13 8 14 9 15 10 5 11 2 12
REMARK SMILES IDX 3 13 23 14 4 15 22 16 1 17 16 18 17 19 18 20 19 21 20 22
REMARK SMILES IDX 21 23
REMARK H PARENT
ROOT
ATOM      1  C   UNL     1     119.267 158.152 107.550  1.00  0.00     0.093 A 
ATOM      2  N   UNL     1     119.869 158.520 106.372  1.00  0.00    -0.228 NA
ATOM      3  C   UNL     1     120.803 159.378 106.709  1.00  0.00     0.137 A 
ATOM      4  C   UNL     1     121.720 160.114 105.908  1.00  0.00     0.048 C 
ATOM      5  C   UNL     1     122.576 160.977 106.487  1.00  0.00     0.009 C 
ATOM      6  C   UNL     1     122.592 161.184 107.932  1.00  0.00    -0.034 C 
ATOM      7  C   UNL     1     123.570 162.170 108.489  1.00  0.00     0.046 C 
ATOM      8  C   UNL     1     121.731 160.478 108.689  1.00  0.00     0.096 C 
ATOM      9  N   UNL     1     120.851 159.573 108.087  1.00  0.00    -0.303 N 
ATOM     10  C   UNL     1     119.899 158.729 108.643  1.00  0.00     0.060 A 
ENDROOT
BRANCH   1  11
ATOM     11  C   UNL     1     118.149 157.227 107.571  1.00  0.00     0.002 A 
ATOM     12  C   UNL     1     116.001 155.405 107.564  1.00  0.00    -0.051 A 
ATOM     13  C   UNL     1     117.111 155.195 106.739  1.00  0.00     0.004 A 
ATOM     14  C   UNL     1     115.974 156.532 108.395  1.00  0.00     0.004 A 
ATOM     15  C   UNL     1     118.170 156.106 106.734  1.00  0.00     0.011 A 
ATOM     16  C   UNL     1     117.035 157.442 108.389  1.00  0.00     0.011 A 
ATOM     17  C   UNL     1     114.875 154.414 107.591  1.00  0.00     0.044 C 
ENDBRANCH   1  11
BRANCH  10  18
ATOM     18  C   UNL     1     119.695 158.567 110.117  1.00  0.00     0.157 C 
BRANCH  18  19
ATOM     19  C   UNL     1     118.696 159.586 110.666  1.00  0.00     0.228 C 
ATOM     20  O   UNL     1     118.802 160.769 110.326  1.00  0.00    -0.274 OA
ATOM     21  N   UNL     1     117.697 159.160 111.531  1.00  0.00    -0.348 N 
ATOM     22  C   UNL     1     117.482 157.784 111.949  1.00  0.00     0.146 C 
ATOM     23  C   UNL     1     116.845 160.153 112.164  1.00  0.00     0.146 C 
ENDBRANCH  18  19
ENDBRANCH  10  18
TORSDOF 3
ENDMDL
MODEL 2
REMARK VINA RESULT:    -9.279      2.597      4.875
REMARK INTER + INTRA:         -11.445
REMARK INTER:                 -11.154
REMARK INTRA:                  -0.290
REMARK UNBOUND:                -0.539
REMARK SMILES Cc1ccc(-c2nc3ccc(C)cn3c2CC(=O)N(C)C)cc1
REMARK SMILES IDX 6 1 7 2 8 3 9 4 10 5 11 6 12 7 13 8 14 9 15 10 5 11 2 12
REMARK SMILES IDX 3 13 23 14 4 15 22 16 1 17 16 18 17 19 18 20 19 21 20 22
REMARK SMILES IDX 21 23
REMARK H PARENT
ROOT
ATOM      1  C   UNL     1     117.422 156.163 110.533  1.00  0.00     0.093 A 
ATOM      2  N   UNL     1     117.002 155.386 109.481  1.00  0.00    -0.228 NA
ATOM      3  C   UNL     1     117.623 155.859 108.426  1.00  0.00     0.137 A 
ATOM      4  C   UNL     1     117.555 155.473 107.058  1.00  0.00     0.048 C 
ATOM      5  C   UNL     1     118.271 156.141 106.135  1.00  0.00     0.009 C 
ATOM      6  C   UNL     1     119.128 157.266 106.498  1.00  0.00    -0.034 C 
ATOM      7  C   UNL     1     119.881 157.957 105.406  1.00  0.00     0.046 C 
ATOM      8  C   UNL     1     119.200 157.621 107.796  1.00  0.00     0.096 C 
ATOM      9  N   UNL     1     118.465 156.919 108.755  1.00  0.00    -0.303 N 
ATOM     10  C   UNL     1     118.387 157.077 110.132  1.00  0.00     0.060 A 
ENDROOT
BRANCH   1  11
ATOM     11  C   UNL     1     116.913 155.956 111.875  1.00  0.00     0.002 A 
ATOM     12  C   UNL     1     115.978 155.539 114.500  1.00  0.00    -0.051 A 
ATOM     13  C   UNL     1     117.351 155.541 114.228  1.00  0.00     0.004 A 
ATOM     14  C   UNL     1     115.077 155.750 113.449  1.00  0.00     0.004 A 
ATOM     15  C   UNL     1     117.813 155.735 112.924  1.00  0.00     0.011 A 
ATOM     16  C   UNL     1     115.541 155.946 112.145  1.00  0.00     0.011 A 
ATOM     17  C   UNL     1     115.481 155.358 115.903  1.00  0.00     0.044 C 
ENDBRANCH   1  11
BRANCH  10  18
ATOM     18  C   UNL     1     119.216 158.058 110.901  1.00  0.00     0.157 C 
BRANCH  18  19
ATOM     19  C   UNL     1     118.761 159.497 110.658  1.00  0.00     0.228 C 
ATOM     20  O   UNL     1     119.327 160.163 109.785  1.00  0.00    -0.274 OA
ATOM     21  N   UNL     1     117.727 160.021 111.422  1.00  0.00    -0.348 N 
ATOM     22  C   UNL     1     116.987 159.293 112.441  1.00  0.00     0.146 C 
ATOM     23  C   UNL     1     117.400 161.432 111.290  1.00  0.00     0.146 C 
ENDBRANCH  18  19
ENDBRANCH  10  18
TORSDOF 3
ENDMDL
MODEL 3
REMARK VINA RESULT:    -9.148      1.823      5.082
REMARK INTER + INTRA:         -11.290
REMARK INTER:                 -10.444
REMARK INTRA:                  -0.847
REMARK UNBOUND:                -0.539
REMARK SMILES Cc1ccc(-c2nc3ccc(C)cn3c2CC(=O)N(C)C)cc1
REMARK SMILES IDX 6 1 7 2 8 3 9 4 10 5 11 6 12 7 13 8 14 9 15 10 5 11 2 12
REMARK SMILES IDX 3 13 23 14 4 15 22 16 1 17 16 18 17 19 18 20 19 21 20 22
REMARK SMILES IDX 21 23
REMARK H PARENT
ROOT
ATOM      1  C   UNL     1     117.978 157.380 109.977  1.00  0.00     0.093 A 
ATOM      2  N   UNL     1     117.218 156.615 109.128  1.00  0.00    -0.228 NA
ATOM      3  C   UNL     1     117.832 156.663 107.969  1.00  0.00     0.137 A 
ATOM      4  C   UNL     1     117.490 156.088 106.713  1.00  0.00     0.048 C 
ATOM      5  C   UNL     1     118.270 156.310 105.638  1.00  0.00     0.009 C 
ATOM      6  C   UNL     1     119.473 157.133 105.722  1.00  0.00    -0.034 C 
ATOM      7  C   UNL     1     120.275 157.335 104.476  1.00  0.00     0.046 C 
ATOM      8  C   UNL     1     119.800 157.666 106.915  1.00  0.00     0.096 C 
ATOM      9  N   UNL     1     118.996 157.425 108.033  1.00  0.00    -0.303 N 
ATOM     10  C   UNL     1     119.129 157.839 109.352  1.00  0.00     0.060 A 
ENDROOT
BRANCH   1  11
ATOM     11  C   UNL     1     117.587 157.591 111.358  1.00  0.00     0.002 A 
ATOM     12  C   UNL     1     116.837 157.946 114.050  1.00  0.00    -0.051 A 
ATOM     13  C   UNL     1     117.434 156.752 113.632  1.00  0.00     0.004 A 
ATOM     14  C   UNL     1     116.620 158.963 113.113  1.00  0.00     0.004 A 
ATOM     15  C   UNL     1     117.794 156.573 112.294  1.00  0.00     0.011 A 
ATOM     16  C   UNL     1     116.982 158.782 111.775  1.00  0.00     0.011 A 
ATOM     17  C   UNL     1     116.474 158.151 115.491  1.00  0.00     0.044 C 
ENDBRANCH   1  11
BRANCH  10  18
ATOM     18  C   UNL     1     120.307 158.610 109.863  1.00  0.00     0.157 C 
BRANCH  18  19
ATOM     19  C   UNL     1     120.155 160.109 109.608  1.00  0.00     0.228 C 
ATOM     20  O   UNL     1     119.204 160.709 110.120  1.00  0.00    -0.274 OA
ATOM     21  N   UNL     1     121.086 160.760 108.810  1.00  0.00    -0.348 N 
ATOM     22  C   UNL     1     122.251 160.136 108.203  1.00  0.00     0.146 C 
ATOM     23  C   UNL     1     120.855 162.150 108.450  1.00  0.00     0.146 C 
ENDBRANCH  18  19
ENDBRANCH  10  18
TORSDOF 3
ENDMDL
MODEL 4
REMARK VINA RESULT:    -8.539      3.073      6.459
REMARK INTER + INTRA:         -10.576
REMARK INTER:                  -9.951
REMARK INTRA:                  -0.625
REMARK UNBOUND:                -0.539
REMARK SMILES Cc1ccc(-c2nc3ccc(C)cn3c2CC(=O)N(C)C)cc1
REMARK SMILES IDX 6 1 7 2 8 3 9 4 10 5 11 6 12 7 13 8 14 9 15 10 5 11 2 12
REMARK SMILES IDX 3 13 23 14 4 15 22 16 1 17 16 18 17 19 18 20 19 21 20 22
REMARK SMILES IDX 21 23
REMARK H PARENT
ROOT
ATOM      1  C   UNL     1     117.701 159.034 111.195  1.00  0.00     0.093 A 
ATOM      2  N   UNL     1     117.284 160.340 111.280  1.00  0.00    -0.228 NA
ATOM      3  C   UNL     1     116.603 160.418 112.400  1.00  0.00     0.137 A 
ATOM      4  C   UNL     1     115.910 161.511 112.990  1.00  0.00     0.048 C 
ATOM      5  C   UNL     1     115.242 161.338 114.146  1.00  0.00     0.009 C 
ATOM      6  C   UNL     1     115.207 160.045 114.823  1.00  0.00    -0.034 C 
ATOM      7  C   UNL     1     114.433 159.940 116.098  1.00  0.00     0.046 C 
ATOM      8  C   UNL     1     115.874 159.014 114.267  1.00  0.00     0.096 C 
ATOM      9  N   UNL     1     116.576 159.199 113.073  1.00  0.00    -0.303 N 
ATOM     10  C   UNL     1     117.344 158.314 112.327  1.00  0.00     0.060 A 
ENDROOT
BRANCH   1  11
ATOM     11  C   UNL     1     118.463 158.557 110.056  1.00  0.00     0.002 A 
ATOM     12  C   UNL     1     119.977 157.677 107.850  1.00  0.00    -0.051 A 
ATOM     13  C   UNL     1     120.421 158.748 108.632  1.00  0.00     0.004 A 
ATOM     14  C   UNL     1     118.770 157.047 108.180  1.00  0.00     0.004 A 
ATOM     15  C   UNL     1     119.663 159.191 109.719  1.00  0.00     0.011 A 
ATOM     16  C   UNL     1     118.014 157.491 109.269  1.00  0.00     0.011 A 
ATOM     17  C   UNL     1     120.802 157.182 106.699  1.00  0.00     0.044 C 
ENDBRANCH   1  11
BRANCH  10  18
ATOM     18  C   UNL     1     117.646 156.912 112.758  1.00  0.00     0.157 C 
BRANCH  18  19
ATOM     19  C   UNL     1     116.381 156.057 112.828  1.00  0.00     0.228 C 
ATOM     20  O   UNL     1     115.695 155.921 111.810  1.00  0.00    -0.274 OA
ATOM     21  N   UNL     1     116.032 155.457 114.030  1.00  0.00    -0.348 N 
ATOM     22  C   UNL     1     116.803 155.538 115.261  1.00  0.00     0.146 C 
ATOM     23  C   UNL     1     114.754 154.771 114.130  1.00  0.00     0.146 C 
ENDBRANCH  18  19
ENDBRANCH  10  18
TORSDOF 3
ENDMDL
MODEL 5
REMARK VINA RESULT:    -8.435      2.646      7.439
REMARK INTER + INTRA:         -10.453
REMARK INTER:                 -10.142
REMARK INTRA:                  -0.311
REMARK UNBOUND:                -0.539
REMARK SMILES Cc1ccc(-c2nc3ccc(C)cn3c2CC(=O)N(C)C)cc1
REMARK SMILES IDX 6 1 7 2 8 3 9 4 10 5 11 6 12 7 13 8 14 9 15 10 5 11 2 12
REMARK SMILES IDX 3 13 23 14 4 15 22 16 1 17 16 18 17 19 18 20 19 21 20 22
REMARK SMILES IDX 21 23
REMARK H PARENT
ROOT
ATOM      1  C   UNL     1     117.673 158.437 111.735  1.00  0.00     0.093 A 
ATOM      2  N   UNL     1     117.071 158.981 112.843  1.00  0.00    -0.228 NA
ATOM      3  C   UNL     1     116.294 158.035 113.318  1.00  0.00     0.137 A 
ATOM      4  C   UNL     1     115.407 158.036 114.431  1.00  0.00     0.048 C 
ATOM      5  C   UNL     1     114.675 156.940 114.707  1.00  0.00     0.009 C 
ATOM      6  C   UNL     1     114.765 155.734 113.889  1.00  0.00    -0.034 C 
ATOM      7  C   UNL     1     113.908 154.566 114.262  1.00  0.00     0.046 C 
ATOM      8  C   UNL     1     115.614 155.733 112.843  1.00  0.00     0.096 C 
ATOM      9  N   UNL     1     116.382 156.867 112.565  1.00  0.00    -0.303 N 
ATOM     10  C   UNL     1     117.326 157.103 111.574  1.00  0.00     0.060 A 
ENDROOT
BRANCH   1  11
ATOM     11  C   UNL     1     118.587 159.210 110.916  1.00  0.00     0.002 A 
ATOM     12  C   UNL     1     120.394 160.665 109.317  1.00  0.00    -0.051 A 
ATOM     13  C   UNL     1     120.455 159.268 109.363  1.00  0.00     0.004 A 
ATOM     14  C   UNL     1     119.422 161.329 110.075  1.00  0.00     0.004 A 
ATOM     15  C   UNL     1     119.566 158.548 110.166  1.00  0.00     0.011 A 
ATOM     16  C   UNL     1     118.533 160.608 110.877  1.00  0.00     0.011 A 
ATOM     17  C   UNL     1     121.329 161.437 108.435  1.00  0.00     0.044 C 
ENDBRANCH   1  11
BRANCH  10  18
ATOM     18  C   UNL     1     117.785 156.059 110.603  1.00  0.00     0.157 C 
BRANCH  18  19
ATOM     19  C   UNL     1     116.891 156.008 109.364  1.00  0.00     0.228 C 
ATOM     20  O   UNL     1     115.667 156.097 109.506  1.00  0.00    -0.274 OA
ATOM     21  N   UNL     1     117.473 155.862 108.112  1.00  0.00    -0.348 N 
ATOM     22  C   UNL     1     118.902 155.787 107.857  1.00  0.00     0.146 C 
ATOM     23  C   UNL     1     116.613 155.664 106.955  1.00  0.00     0.146 C 
ENDBRANCH  18  19
ENDBRANCH  10  18
TORSDOF 3
ENDMDL
MODEL 6
REMARK VINA RESULT:    -8.269      2.969      6.652
REMARK INTER + INTRA:         -10.257
REMARK INTER:                  -9.710
REMARK INTRA:                  -0.547
REMARK UNBOUND:                -0.539
REMARK SMILES Cc1ccc(-c2nc3ccc(C)cn3c2CC(=O)N(C)C)cc1
REMARK SMILES IDX 6 1 7 2 8 3 9 4 10 5 11 6 12 7 13 8 14 9 15 10 5 11 2 12
REMARK SMILES IDX 3 13 23 14 4 15 22 16 1 17 16 18 17 19 18 20 19 21 20 22
REMARK SMILES IDX 21 23
REMARK H PARENT
ROOT
ATOM      1  C   UNL     1     118.022 157.949 111.727  1.00  0.00     0.093 A 
ATOM      2  N   UNL     1     118.319 156.972 112.645  1.00  0.00    -0.228 NA
ATOM      3  C   UNL     1     117.539 157.209 113.673  1.00  0.00     0.137 A 
ATOM      4  C   UNL     1     117.429 156.545 114.927  1.00  0.00     0.048 C 
ATOM      5  C   UNL     1     116.567 157.000 115.855  1.00  0.00     0.009 C 
ATOM      6  C   UNL     1     115.728 158.170 115.612  1.00  0.00    -0.034 C 
ATOM      7  C   UNL     1     114.806 158.612 116.702  1.00  0.00     0.046 C 
ATOM      8  C   UNL     1     115.826 158.789 114.419  1.00  0.00     0.096 C 
ATOM      9  N   UNL     1     116.713 158.308 113.453  1.00  0.00    -0.303 N 
ATOM     10  C   UNL     1     116.978 158.753 112.163  1.00  0.00     0.060 A 
ENDROOT
BRANCH   1  11
ATOM     11  C   UNL     1     118.721 158.032 110.458  1.00  0.00     0.002 A 
ATOM     12  C   UNL     1     120.101 158.242 108.011  1.00  0.00    -0.051 A 
ATOM     13  C   UNL     1     120.371 159.132 109.056  1.00  0.00     0.004 A 
ATOM     14  C   UNL     1     119.137 157.244 108.200  1.00  0.00     0.004 A 
ATOM     15  C   UNL     1     119.678 159.034 110.265  1.00  0.00     0.011 A 
ATOM     16  C   UNL     1     118.444 157.147 109.410  1.00  0.00     0.011 A 
ATOM     17  C   UNL     1     120.864 158.328 106.723  1.00  0.00     0.044 C 
ENDBRANCH   1  11
BRANCH  10  18
ATOM     18  C   UNL     1     116.229 159.868 111.502  1.00  0.00     0.157 C 
BRANCH  18  19
ATOM     19  C   UNL     1     116.830 161.232 111.839  1.00  0.00     0.228 C 
ATOM     20  O   UNL     1     117.869 161.584 111.271  1.00  0.00    -0.274 OA
ATOM     21  N   UNL     1     116.199 162.040 112.775  1.00  0.00    -0.348 N 
ATOM     22  C   UNL     1     114.958 161.716 113.460  1.00  0.00     0.146 C 
ATOM     23  C   UNL     1     116.854 163.267 113.201  1.00  0.00     0.146 C 
ENDBRANCH  18  19
ENDBRANCH  10  18
TORSDOF 3
ENDMDL
MODEL 7
REMARK VINA RESULT:    -8.167      4.520      8.336
REMARK INTER + INTRA:         -10.138
REMARK INTER:                  -9.641
REMARK INTRA:                  -0.497
REMARK UNBOUND:                -0.539
REMARK SMILES Cc1ccc(-c2nc3ccc(C)cn3c2CC(=O)N(C)C)cc1
REMARK SMILES IDX 6 1 7 2 8 3 9 4 10 5 11 6 12 7 13 8 14 9 15 10 5 11 2 12
REMARK SMILES IDX 3 13 23 14 4 15 22 16 1 17 16 18 17 19 18 20 19 21 20 22
REMARK SMILES IDX 21 23
REMARK H PARENT
ROOT
ATOM      1  C   UNL     1     117.384 155.845 113.631  1.00  0.00     0.093 A 
ATOM      2  N   UNL     1     117.495 154.520 113.975  1.00  0.00    -0.228 NA
ATOM      3  C   UNL     1     117.098 154.449 115.224  1.00  0.00     0.137 A 
ATOM      4  C   UNL     1     117.029 153.340 116.113  1.00  0.00     0.048 C 
ATOM      5  C   UNL     1     116.616 153.521 117.382  1.00  0.00     0.009 C 
ATOM      6  C   UNL     1     116.232 154.838 117.880  1.00  0.00    -0.034 C 
ATOM      7  C   UNL     1     115.795 154.949 119.307  1.00  0.00     0.046 C 
ATOM      8  C   UNL     1     116.288 155.884 117.033  1.00  0.00     0.096 C 
ATOM      9  N   UNL     1     116.705 155.692 115.713  1.00  0.00    -0.303 N 
ATOM     10  C   UNL     1     116.827 156.591 114.661  1.00  0.00     0.060 A 
ENDROOT
BRANCH   1  11
ATOM     11  C   UNL     1     117.771 156.319 112.316  1.00  0.00     0.002 A 
ATOM     12  C   UNL     1     118.507 157.189 109.739  1.00  0.00    -0.051 A 
ATOM     13  C   UNL     1     117.778 156.007 109.907  1.00  0.00     0.004 A 
ATOM     14  C   UNL     1     118.863 157.935 110.869  1.00  0.00     0.004 A 
ATOM     15  C   UNL     1     117.424 155.570 111.186  1.00  0.00     0.011 A 
ATOM     16  C   UNL     1     118.508 157.497 112.149  1.00  0.00     0.011 A 
ATOM     17  C   UNL     1     118.863 157.674 108.365  1.00  0.00     0.044 C 
ENDBRANCH   1  11
BRANCH  10  18
ATOM     18  C   UNL     1     116.413 158.027 114.747  1.00  0.00     0.157 C 
BRANCH  18  19
ATOM     19  C   UNL     1     114.897 158.187 114.631  1.00  0.00     0.228 C 
ATOM     20  O   UNL     1     114.199 157.177 114.498  1.00  0.00    -0.274 OA
ATOM     21  N   UNL     1     114.343 159.458 114.677  1.00  0.00    -0.348 N 
ATOM     22  C   UNL     1     115.090 160.691 114.868  1.00  0.00     0.146 C 
ATOM     23  C   UNL     1     112.920 159.616 114.418  1.00  0.00     0.146 C 
ENDBRANCH  18  19
ENDBRANCH  10  18
TORSDOF 3
ENDMDL
MODEL 8
REMARK VINA RESULT:    -7.783      3.838      6.310
REMARK INTER + INTRA:          -9.687
REMARK INTER:                  -8.663
REMARK INTRA:                  -1.024
REMARK UNBOUND:                -0.539
REMARK SMILES Cc1ccc(-c2nc3ccc(C)cn3c2CC(=O)N(C)C)cc1
REMARK SMILES IDX 6 1 7 2 8 3 9 4 10 5 11 6 12 7 13 8 14 9 15 10 5 11 2 12
REMARK SMILES IDX 3 13 23 14 4 15 22 16 1 17 16 18 17 19 18 20 19 21 20 22
REMARK SMILES IDX 21 23
REMARK H PARENT
ROOT
ATOM      1  C   UNL     1     116.882 160.025 111.662  1.00  0.00     0.093 A 
ATOM      2  N   UNL     1     117.286 161.319 111.445  1.00  0.00    -0.228 NA
ATOM      3  C   UNL     1     116.701 162.030 112.380  1.00  0.00     0.137 A 
ATOM      4  C   UNL     1     116.725 163.431 112.633  1.00  0.00     0.048 C 
ATOM      5  C   UNL     1     116.004 163.943 113.647  1.00  0.00     0.009 C 
ATOM      6  C   UNL     1     115.187 163.094 114.510  1.00  0.00    -0.034 C 
ATOM      7  C   UNL     1     114.410 163.749 115.608  1.00  0.00     0.046 C 
ATOM      8  C   UNL     1     115.176 161.767 114.276  1.00  0.00     0.096 C 
ATOM      9  N   UNL     1     115.934 161.236 113.229  1.00  0.00    -0.303 N 
ATOM     10  C   UNL     1     116.101 159.924 112.806  1.00  0.00     0.060 A 
ENDROOT
BRANCH   1  11
ATOM     11  C   UNL     1     117.305 158.945 110.791  1.00  0.00     0.002 A 
ATOM     12  C   UNL     1     118.074 156.843 109.080  1.00  0.00    -0.051 A 
ATOM     13  C   UNL     1     116.802 157.416 108.972  1.00  0.00     0.004 A 
ATOM     14  C   UNL     1     118.959 157.331 110.049  1.00  0.00     0.004 A 
ATOM     15  C   UNL     1     116.418 158.451 109.829  1.00  0.00     0.011 A 
ATOM     16  C   UNL     1     118.574 158.366 110.905  1.00  0.00     0.011 A 
ATOM     17  C   UNL     1     118.498 155.752 108.143  1.00  0.00     0.044 C 
ENDBRANCH   1  11
BRANCH  10  18
ATOM     18  C   UNL     1     115.514 158.744 113.515  1.00  0.00     0.157 C 
BRANCH  18  19
ATOM     19  C   UNL     1     116.597 157.808 114.050  1.00  0.00     0.228 C 
ATOM     20  O   UNL     1     117.336 158.206 114.957  1.00  0.00    -0.274 OA
ATOM     21  N   UNL     1     116.727 156.538 113.506  1.00  0.00    -0.348 N 
ATOM     22  C   UNL     1     115.876 155.981 112.466  1.00  0.00     0.146 C 
ATOM     23  C   UNL     1     117.851 155.709 113.913  1.00  0.00     0.146 C 
ENDBRANCH  18  19
ENDBRANCH  10  18
TORSDOF 3
ENDMDL
MODEL 9
REMARK VINA RESULT:    -7.761      3.492      7.471
REMARK INTER + INTRA:          -9.660
REMARK INTER:                  -9.432
REMARK INTRA:                  -0.229
REMARK UNBOUND:                -0.539
REMARK SMILES Cc1ccc(-c2nc3ccc(C)cn3c2CC(=O)N(C)C)cc1
REMARK SMILES IDX 6 1 7 2 8 3 9 4 10 5 11 6 12 7 13 8 14 9 15 10 5 11 2 12
REMARK SMILES IDX 3 13 23 14 4 15 22 16 1 17 16 18 17 19 18 20 19 21 20 22
REMARK SMILES IDX 21 23
REMARK H PARENT
ROOT
ATOM      1  C   UNL     1     116.981 158.666 112.159  1.00  0.00     0.093 A 
ATOM      2  N   UNL     1     116.724 159.903 112.699  1.00  0.00    -0.228 NA
ATOM      3  C   UNL     1     115.839 159.694 113.646  1.00  0.00     0.137 A 
ATOM      4  C   UNL     1     115.182 160.605 114.519  1.00  0.00     0.048 C 
ATOM      5  C   UNL     1     114.270 160.153 115.399  1.00  0.00     0.009 C 
ATOM      6  C   UNL     1     113.930 158.735 115.489  1.00  0.00    -0.034 C 
ATOM      7  C   UNL     1     112.898 158.322 116.489  1.00  0.00     0.046 C 
ATOM      8  C   UNL     1     114.563 157.874 114.669  1.00  0.00     0.096 C 
ATOM      9  N   UNL     1     115.518 158.344 113.763  1.00  0.00    -0.303 N 
ATOM     10  C   UNL     1     116.306 157.665 112.843  1.00  0.00     0.060 A 
ENDROOT
BRANCH   1  11
ATOM     11  C   UNL     1     117.898 158.504 111.047  1.00  0.00     0.002 A 
ATOM     12  C   UNL     1     119.659 158.136 108.878  1.00  0.00    -0.051 A 
ATOM     13  C   UNL     1     118.629 157.220 109.118  1.00  0.00     0.004 A 
ATOM     14  C   UNL     1     119.800 159.239 109.729  1.00  0.00     0.004 A 
ATOM     15  C   UNL     1     117.764 157.397 110.202  1.00  0.00     0.011 A 
ATOM     16  C   UNL     1     118.933 159.415 110.812  1.00  0.00     0.011 A 
ATOM     17  C   UNL     1     120.571 157.963 107.700  1.00  0.00     0.044 C 
ENDBRANCH   1  11
BRANCH  10  18
ATOM     18  C   UNL     1     116.331 156.173 112.715  1.00  0.00     0.157 C 
BRANCH  18  19
ATOM     19  C   UNL     1     117.006 155.514 113.917  1.00  0.00     0.228 C 
ATOM     20  O   UNL     1     118.215 155.694 114.097  1.00  0.00    -0.274 OA
ATOM     21  N   UNL     1     116.249 154.728 114.775  1.00  0.00    -0.348 N 
ATOM     22  C   UNL     1     114.818 154.496 114.655  1.00  0.00     0.146 C 
ATOM     23  C   UNL     1     116.923 153.984 115.828  1.00  0.00     0.146 C 
ENDBRANCH  18  19
ENDBRANCH  10  18
TORSDOF 3
ENDMDL
