MODEL 1
REMARK VINA RESULT:    -6.913      0.000      0.000
REMARK INTER + INTRA:          -7.914
REMARK INTER:                  -7.519
REMARK INTRA:                  -0.394
REMARK UNBOUND:                -0.394
REMARK SMILES CN1C(=O)C(O)N=C(c2ccccc2)c2cc(Cl)ccc21
REMARK SMILES IDX 1 1 2 2 3 3 4 4 5 5 7 6 8 7 15 8 16 9 17 10 18 11 19 12
REMARK SMILES IDX 20 13 21 14 6 15 9 17 10 18 14 19 11 20 13 21 12 22
REMARK H PARENT 6 16
ROOT
ATOM      1  C   UNL     1     140.008  98.225 134.734  1.00  0.00     0.153 C 
ATOM      2  N   UNL     1     141.419  98.091 135.078  1.00  0.00    -0.311 N 
ATOM      3  C   UNL     1     142.344  98.686 134.211  1.00  0.00     0.278 C 
ATOM      4  O   UNL     1     142.011  99.190 133.133  1.00  0.00    -0.269 OA
ATOM      5  C   UNL     1     143.823  98.741 134.690  1.00  0.00     0.323 C 
ATOM      6  N   UNL     1     144.361  97.398 134.540  1.00  0.00    -0.243 NA
ATOM      7  C   UNL     1     143.945  96.486 135.353  1.00  0.00     0.078 C 
ATOM      8  C   UNL     1     142.987  96.732 136.474  1.00  0.00     0.026 A 
ATOM      9  C   UNL     1     143.317  96.174 137.723  1.00  0.00     0.033 A 
ATOM     10  C   UNL     1     142.426  96.263 138.786  1.00  0.00     0.041 A 
ATOM     11  Cl  UNL     1     142.827  95.565 140.304  1.00  0.00    -0.084 Cl
ATOM     12  C   UNL     1     141.205  96.905 138.620  1.00  0.00     0.023 A 
ATOM     13  C   UNL     1     140.885  97.482 137.388  1.00  0.00     0.028 A 
ATOM     14  C   UNL     1     141.776  97.435 136.298  1.00  0.00     0.053 A 
ENDROOT
BRANCH   5  15
ATOM     15  O   UNL     1     144.552  99.697 133.936  1.00  0.00    -0.364 OA
ATOM     16  H   UNL     1     143.917 100.428 133.823  1.00  0.00     0.213 HD
ENDBRANCH   5  15
BRANCH   7  17
ATOM     17  C   UNL     1     144.468  95.098 135.147  1.00  0.00     0.000 A 
ATOM     18  C   UNL     1     143.711  94.191 134.394  1.00  0.00     0.010 A 
ATOM     19  C   UNL     1     145.681  94.685 135.715  1.00  0.00     0.010 A 
ATOM     20  C   UNL     1     144.176  92.892 134.188  1.00  0.00     0.001 A 
ATOM     21  C   UNL     1     146.142  93.384 135.504  1.00  0.00     0.001 A 
ATOM     22  C   UNL     1     145.392  92.491 134.740  1.00  0.00     0.000 A 
ENDBRANCH   7  17
TORSDOF 2
ENDMDL
MODEL 2
REMARK VINA RESULT:    -6.720      3.709      5.328
REMARK INTER + INTRA:          -7.703
REMARK INTER:                  -7.220
REMARK INTRA:                  -0.484
REMARK UNBOUND:                -0.394
REMARK SMILES CN1C(=O)C(O)N=C(c2ccccc2)c2cc(Cl)ccc21
REMARK SMILES IDX 1 1 2 2 3 3 4 4 5 5 7 6 8 7 15 8 16 9 17 10 18 11 19 12
REMARK SMILES IDX 20 13 21 14 6 15 9 17 10 18 14 19 11 20 13 21 12 22
REMARK H PARENT 6 16
ROOT
ATOM      1  C   UNL     1     138.914 100.621 134.519  1.00  0.00     0.153 C 
ATOM      2  N   UNL     1     139.737  99.765 133.673  1.00  0.00    -0.311 N 
ATOM      3  C   UNL     1     140.133 100.287 132.435  1.00  0.00     0.278 C 
ATOM      4  O   UNL     1     139.707 101.365 132.004  1.00  0.00    -0.269 OA
ATOM      5  C   UNL     1     141.191  99.474 131.635  1.00  0.00     0.323 C 
ATOM      6  N   UNL     1     140.496  98.329 131.069  1.00  0.00    -0.243 NA
ATOM      7  C   UNL     1     140.122  97.391 131.872  1.00  0.00     0.078 C 
ATOM      8  C   UNL     1     140.406  97.379 133.340  1.00  0.00     0.026 A 
ATOM      9  C   UNL     1     140.888  96.173 133.882  1.00  0.00     0.033 A 
ATOM     10  C   UNL     1     141.069  96.047 135.255  1.00  0.00     0.041 A 
ATOM     11  Cl  UNL     1     141.643  94.567 135.913  1.00  0.00    -0.084 Cl
ATOM     12  C   UNL     1     140.776  97.112 136.097  1.00  0.00     0.023 A 
ATOM     13  C   UNL     1     140.321  98.319 135.559  1.00  0.00     0.028 A 
ATOM     14  C   UNL     1     140.153  98.491 134.171  1.00  0.00     0.053 A 
ENDROOT
BRANCH   5  15
ATOM     15  O   UNL     1     141.786 100.287 130.635  1.00  0.00    -0.364 OA
ATOM     16  H   UNL     1     142.107  99.642 129.979  1.00  0.00     0.213 HD
ENDBRANCH   5  15
BRANCH   7  17
ATOM     17  C   UNL     1     139.360  96.246 131.278  1.00  0.00     0.000 A 
ATOM     18  C   UNL     1     140.044  95.313 130.488  1.00  0.00     0.010 A 
ATOM     19  C   UNL     1     137.980  96.112 131.473  1.00  0.00     0.010 A 
ATOM     20  C   UNL     1     139.357  94.238 129.923  1.00  0.00     0.001 A 
ATOM     21  C   UNL     1     137.297  95.034 130.906  1.00  0.00     0.001 A 
ATOM     22  C   UNL     1     137.986  94.097 130.135  1.00  0.00     0.000 A 
ENDBRANCH   7  17
TORSDOF 2
ENDMDL
MODEL 3
REMARK VINA RESULT:    -6.613      1.398      1.837
REMARK INTER + INTRA:          -7.587
REMARK INTER:                  -7.083
REMARK INTRA:                  -0.504
REMARK UNBOUND:                -0.394
REMARK SMILES CN1C(=O)C(O)N=C(c2ccccc2)c2cc(Cl)ccc21
REMARK SMILES IDX 1 1 2 2 3 3 4 4 5 5 7 6 8 7 15 8 16 9 17 10 18 11 19 12
REMARK SMILES IDX 20 13 21 14 6 15 9 17 10 18 14 19 11 20 13 21 12 22
REMARK H PARENT 6 16
ROOT
ATOM      1  C   UNL     1     140.096  98.190 133.320  1.00  0.00     0.153 C 
ATOM      2  N   UNL     1     141.536  98.137 133.544  1.00  0.00    -0.311 N 
ATOM      3  C   UNL     1     142.359  98.534 132.482  1.00  0.00     0.278 C 
ATOM      4  O   UNL     1     141.912  98.793 131.359  1.00  0.00    -0.269 OA
ATOM      5  C   UNL     1     143.876  98.695 132.790  1.00  0.00     0.323 C 
ATOM      6  N   UNL     1     144.429  97.353 132.879  1.00  0.00    -0.243 NA
ATOM      7  C   UNL     1     144.115  96.637 133.905  1.00  0.00     0.078 C 
ATOM      8  C   UNL     1     143.263  97.116 135.037  1.00  0.00     0.026 A 
ATOM      9  C   UNL     1     143.725  96.842 136.338  1.00  0.00     0.033 A 
ATOM     10  C   UNL     1     142.937  97.156 137.439  1.00  0.00     0.041 A 
ATOM     11  Cl  UNL     1     143.499  96.804 139.025  1.00  0.00    -0.084 Cl
ATOM     12  C   UNL     1     141.691  97.742 137.260  1.00  0.00     0.023 A 
ATOM     13  C   UNL     1     141.241  98.039 135.971  1.00  0.00     0.028 A 
ATOM     14  C   UNL     1     142.025  97.761 134.834  1.00  0.00     0.053 A 
ENDROOT
BRANCH   5  15
ATOM     15  O   UNL     1     144.505  99.469 131.781  1.00  0.00    -0.364 OA
ATOM     16  H   UNL     1     144.175  99.074 130.953  1.00  0.00     0.213 HD
ENDBRANCH   5  15
BRANCH   7  17
ATOM     17  C   UNL     1     144.650  95.239 133.951  1.00  0.00     0.000 A 
ATOM     18  C   UNL     1     146.035  95.044 134.023  1.00  0.00     0.010 A 
ATOM     19  C   UNL     1     143.795  94.130 133.894  1.00  0.00     0.010 A 
ATOM     20  C   UNL     1     146.559  93.752 134.066  1.00  0.00     0.001 A 
ATOM     21  C   UNL     1     144.325  92.839 133.939  1.00  0.00     0.001 A 
ATOM     22  C   UNL     1     145.704  92.651 134.028  1.00  0.00     0.000 A 
ENDBRANCH   7  17
TORSDOF 2
ENDMDL
MODEL 4
REMARK VINA RESULT:    -6.485      2.147      4.620
REMARK INTER + INTRA:          -7.448
REMARK INTER:                  -7.162
REMARK INTRA:                  -0.286
REMARK UNBOUND:                -0.394
REMARK SMILES CN1C(=O)C(O)N=C(c2ccccc2)c2cc(Cl)ccc21
REMARK SMILES IDX 1 1 2 2 3 3 4 4 5 5 7 6 8 7 15 8 16 9 17 10 18 11 19 12
REMARK SMILES IDX 20 13 21 14 6 15 9 17 10 18 14 19 11 20 13 21 12 22
REMARK H PARENT 6 16
ROOT
ATOM      1  C   UNL     1     143.449  99.091 133.722  1.00  0.00     0.153 C 
ATOM      2  N   UNL     1     142.817  98.022 134.487  1.00  0.00    -0.311 N 
ATOM      3  C   UNL     1     141.451  98.163 134.766  1.00  0.00     0.278 C 
ATOM      4  O   UNL     1     140.825  99.195 134.503  1.00  0.00    -0.269 OA
ATOM      5  C   UNL     1     140.728  96.929 135.378  1.00  0.00     0.323 C 
ATOM      6  N   UNL     1     141.132  96.858 136.773  1.00  0.00    -0.243 NA
ATOM      7  C   UNL     1     142.344  96.500 137.034  1.00  0.00     0.078 C 
ATOM      8  C   UNL     1     143.344  96.100 135.997  1.00  0.00     0.026 A 
ATOM      9  C   UNL     1     144.089  94.934 136.252  1.00  0.00     0.033 A 
ATOM     10  C   UNL     1     145.115  94.558 135.392  1.00  0.00     0.041 A 
ATOM     11  Cl  UNL     1     146.032  93.141 135.717  1.00  0.00    -0.084 Cl
ATOM     12  C   UNL     1     145.408  95.332 134.277  1.00  0.00     0.023 A 
ATOM     13  C   UNL     1     144.653  96.478 134.007  1.00  0.00     0.028 A 
ATOM     14  C   UNL     1     143.589  96.872 134.842  1.00  0.00     0.053 A 
ENDROOT
BRANCH   5  15
ATOM     15  O   UNL     1     139.322  97.058 135.233  1.00  0.00    -0.364 OA
ATOM     16  H   UNL     1     139.122  96.503 134.457  1.00  0.00     0.213 HD
ENDBRANCH   5  15
BRANCH   7  17
ATOM     17  C   UNL     1     142.756  96.486 138.474  1.00  0.00     0.000 A 
ATOM     18  C   UNL     1     141.815  96.126 139.446  1.00  0.00     0.010 A 
ATOM     19  C   UNL     1     144.051  96.852 138.863  1.00  0.00     0.010 A 
ATOM     20  C   UNL     1     142.173  96.106 140.794  1.00  0.00     0.001 A 
ATOM     21  C   UNL     1     144.406  96.829 140.214  1.00  0.00     0.001 A 
ATOM     22  C   UNL     1     143.469  96.453 141.177  1.00  0.00     0.000 A 
ENDBRANCH   7  17
TORSDOF 2
ENDMDL
MODEL 5
REMARK VINA RESULT:    -6.369      2.691      3.430
REMARK INTER + INTRA:          -7.322
REMARK INTER:                  -6.818
REMARK INTRA:                  -0.504
REMARK UNBOUND:                -0.394
REMARK SMILES CN1C(=O)C(O)N=C(c2ccccc2)c2cc(Cl)ccc21
REMARK SMILES IDX 1 1 2 2 3 3 4 4 5 5 7 6 8 7 15 8 16 9 17 10 18 11 19 12
REMARK SMILES IDX 20 13 21 14 6 15 9 17 10 18 14 19 11 20 13 21 12 22
REMARK H PARENT 6 16
ROOT
ATOM      1  C   UNL     1     138.469  97.868 132.526  1.00  0.00     0.153 C 
ATOM      2  N   UNL     1     139.869  98.274 132.533  1.00  0.00    -0.311 N 
ATOM      3  C   UNL     1     140.355  98.902 131.377  1.00  0.00     0.278 C 
ATOM      4  O   UNL     1     139.683  98.996 130.344  1.00  0.00    -0.269 OA
ATOM      5  C   UNL     1     141.773  99.536 131.464  1.00  0.00     0.323 C 
ATOM      6  N   UNL     1     142.725  98.438 131.417  1.00  0.00    -0.243 NA
ATOM      7  C   UNL     1     142.812  97.668 132.449  1.00  0.00     0.078 C 
ATOM      8  C   UNL     1     142.036  97.865 133.712  1.00  0.00     0.026 A 
ATOM      9  C   UNL     1     142.753  97.762 134.919  1.00  0.00     0.033 A 
ATOM     10  C   UNL     1     142.085  97.821 136.136  1.00  0.00     0.041 A 
ATOM     11  Cl  UNL     1     142.965  97.678 137.606  1.00  0.00    -0.084 Cl
ATOM     12  C   UNL     1     140.707  97.983 136.167  1.00  0.00     0.023 A 
ATOM     13  C   UNL     1     139.994  98.111 134.971  1.00  0.00     0.028 A 
ATOM     14  C   UNL     1     140.642  98.084 133.721  1.00  0.00     0.053 A 
ENDROOT
BRANCH   5  15
ATOM     15  O   UNL     1     141.966 100.459 130.404  1.00  0.00    -0.364 OA
ATOM     16  H   UNL     1     142.270 101.266 130.858  1.00  0.00     0.213 HD
ENDBRANCH   5  15
BRANCH   7  17
ATOM     17  C   UNL     1     143.758  96.511 132.360  1.00  0.00     0.000 A 
ATOM     18  C   UNL     1     145.133  96.763 132.277  1.00  0.00     0.010 A 
ATOM     19  C   UNL     1     143.292  95.190 132.328  1.00  0.00     0.010 A 
ATOM     20  C   UNL     1     146.036  95.703 132.192  1.00  0.00     0.001 A 
ATOM     21  C   UNL     1     144.199  94.132 132.244  1.00  0.00     0.001 A 
ATOM     22  C   UNL     1     145.569  94.389 132.180  1.00  0.00     0.000 A 
ENDBRANCH   7  17
TORSDOF 2
ENDMDL
MODEL 6
REMARK VINA RESULT:    -6.328      3.543      5.345
REMARK INTER + INTRA:          -7.278
REMARK INTER:                  -7.388
REMARK INTRA:                   0.110
REMARK UNBOUND:                -0.394
REMARK SMILES CN1C(=O)C(O)N=C(c2ccccc2)c2cc(Cl)ccc21
REMARK SMILES IDX 1 1 2 2 3 3 4 4 5 5 7 6 8 7 15 8 16 9 17 10 18 11 19 12
REMARK SMILES IDX 20 13 21 14 6 15 9 17 10 18 14 19 11 20 13 21 12 22
REMARK H PARENT 6 16
ROOT
ATOM      1  C   UNL     1     140.400  96.227 130.714  1.00  0.00     0.153 C 
ATOM      2  N   UNL     1     141.061  97.195 131.581  1.00  0.00    -0.311 N 
ATOM      3  C   UNL     1     142.463  97.191 131.585  1.00  0.00     0.278 C 
ATOM      4  O   UNL     1     143.123  96.330 130.994  1.00  0.00    -0.269 OA
ATOM      5  C   UNL     1     143.167  98.363 132.327  1.00  0.00     0.323 C 
ATOM      6  N   UNL     1     143.039  98.093 133.751  1.00  0.00    -0.243 NA
ATOM      7  C   UNL     1     141.872  98.219 134.287  1.00  0.00     0.078 C 
ATOM      8  C   UNL     1     140.654  98.679 133.552  1.00  0.00     0.026 A 
ATOM      9  C   UNL     1     139.863  99.655 134.185  1.00  0.00     0.033 A 
ATOM     10  C   UNL     1     138.657 100.052 133.619  1.00  0.00     0.041 A 
ATOM     11  Cl  UNL     1     137.687 101.233 134.405  1.00  0.00    -0.084 Cl
ATOM     12  C   UNL     1     138.229  99.487 132.425  1.00  0.00     0.023 A 
ATOM     13  C   UNL     1     139.024  98.536 131.781  1.00  0.00     0.028 A 
ATOM     14  C   UNL     1     140.265  98.131 132.312  1.00  0.00     0.053 A 
ENDROOT
BRANCH   5  15
ATOM     15  O   UNL     1     144.523  98.461 131.921  1.00  0.00    -0.364 OA
ATOM     16  H   UNL     1     144.462  98.601 130.958  1.00  0.00     0.213 HD
ENDBRANCH   5  15
BRANCH   7  17
ATOM     17  C   UNL     1     141.750  97.884 135.742  1.00  0.00     0.000 A 
ATOM     18  C   UNL     1     142.903  97.537 136.457  1.00  0.00     0.010 A 
ATOM     19  C   UNL     1     140.506  97.883 136.387  1.00  0.00     0.010 A 
ATOM     20  C   UNL     1     142.816  97.219 137.813  1.00  0.00     0.001 A 
ATOM     21  C   UNL     1     140.425  97.566 137.744  1.00  0.00     0.001 A 
ATOM     22  C   UNL     1     141.579  97.238 138.456  1.00  0.00     0.000 A 
ENDBRANCH   7  17
TORSDOF 2
ENDMDL
MODEL 7
REMARK VINA RESULT:    -6.323      3.314      5.473
REMARK INTER + INTRA:          -7.272
REMARK INTER:                  -6.835
REMARK INTRA:                  -0.437
REMARK UNBOUND:                -0.394
REMARK SMILES CN1C(=O)C(O)N=C(c2ccccc2)c2cc(Cl)ccc21
REMARK SMILES IDX 1 1 2 2 3 3 4 4 5 5 7 6 8 7 15 8 16 9 17 10 18 11 19 12
REMARK SMILES IDX 20 13 21 14 6 15 9 17 10 18 14 19 11 20 13 21 12 22
REMARK H PARENT 6 16
ROOT
ATOM      1  C   UNL     1     144.104  94.627 131.406  1.00  0.00     0.153 C 
ATOM      2  N   UNL     1     143.393  95.821 131.846  1.00  0.00    -0.311 N 
ATOM      3  C   UNL     1     144.140  97.000 131.961  1.00  0.00     0.278 C 
ATOM      4  O   UNL     1     145.369  97.020 131.830  1.00  0.00    -0.269 OA
ATOM      5  C   UNL     1     143.347  98.315 132.207  1.00  0.00     0.323 C 
ATOM      6  N   UNL     1     142.931  98.297 133.601  1.00  0.00    -0.243 NA
ATOM      7  C   UNL     1     142.007  97.465 133.945  1.00  0.00     0.078 C 
ATOM      8  C   UNL     1     141.296  96.557 132.994  1.00  0.00     0.026 A 
ATOM      9  C   UNL     1     139.895  96.493 133.105  1.00  0.00     0.033 A 
ATOM     10  C   UNL     1     139.172  95.590 132.333  1.00  0.00     0.041 A 
ATOM     11  Cl  UNL     1     137.463  95.506 132.486  1.00  0.00    -0.084 Cl
ATOM     12  C   UNL     1     139.831  94.748 131.448  1.00  0.00     0.023 A 
ATOM     13  C   UNL     1     141.221  94.825 131.317  1.00  0.00     0.028 A 
ATOM     14  C   UNL     1     141.981  95.748 132.062  1.00  0.00     0.053 A 
ENDROOT
BRANCH   5  15
ATOM     15  O   UNL     1     144.153  99.443 131.903  1.00  0.00    -0.364 OA
ATOM     16  H   UNL     1     143.539 100.042 131.440  1.00  0.00     0.213 HD
ENDBRANCH   5  15
BRANCH   7  17
ATOM     17  C   UNL     1     141.631  97.424 135.394  1.00  0.00     0.000 A 
ATOM     18  C   UNL     1     142.156  96.407 136.202  1.00  0.00     0.010 A 
ATOM     19  C   UNL     1     140.747  98.361 135.945  1.00  0.00     0.010 A 
ATOM     20  C   UNL     1     141.822  96.345 137.555  1.00  0.00     0.001 A 
ATOM     21  C   UNL     1     140.417  98.295 137.300  1.00  0.00     0.001 A 
ATOM     22  C   UNL     1     140.956  97.291 138.104  1.00  0.00     0.000 A 
ENDBRANCH   7  17
TORSDOF 2
ENDMDL
MODEL 8
REMARK VINA RESULT:    -6.136      2.737      4.516
REMARK INTER + INTRA:          -7.069
REMARK INTER:                  -6.621
REMARK INTRA:                  -0.448
REMARK UNBOUND:                -0.394
REMARK SMILES CN1C(=O)C(O)N=C(c2ccccc2)c2cc(Cl)ccc21
REMARK SMILES IDX 1 1 2 2 3 3 4 4 5 5 7 6 8 7 15 8 16 9 17 10 18 11 19 12
REMARK SMILES IDX 20 13 21 14 6 15 9 17 10 18 14 19 11 20 13 21 12 22
REMARK H PARENT 6 16
ROOT
ATOM      1  C   UNL     1     141.558  93.846 134.040  1.00  0.00     0.153 C 
ATOM      2  N   UNL     1     142.366  94.789 134.804  1.00  0.00    -0.311 N 
ATOM      3  C   UNL     1     143.755  94.607 134.771  1.00  0.00     0.278 C 
ATOM      4  O   UNL     1     144.281  93.625 134.237  1.00  0.00    -0.269 OA
ATOM      5  C   UNL     1     144.627  95.737 135.392  1.00  0.00     0.323 C 
ATOM      6  N   UNL     1     144.519  95.601 136.836  1.00  0.00    -0.243 NA
ATOM      7  C   UNL     1     143.398  95.917 137.391  1.00  0.00     0.078 C 
ATOM      8  C   UNL     1     142.220  96.467 136.652  1.00  0.00     0.026 A 
ATOM      9  C   UNL     1     141.580  97.584 137.221  1.00  0.00     0.033 A 
ATOM     10  C   UNL     1     140.412  98.084 136.655  1.00  0.00     0.041 A 
ATOM     11  Cl  UNL     1     139.626  99.437 137.364  1.00  0.00    -0.084 Cl
ATOM     12  C   UNL     1     139.873  97.483 135.525  1.00  0.00     0.023 A 
ATOM     13  C   UNL     1     140.520  96.389 134.943  1.00  0.00     0.028 A 
ATOM     14  C   UNL     1     141.719  95.875 135.473  1.00  0.00     0.053 A 
ENDROOT
BRANCH   5  15
ATOM     15  O   UNL     1     145.968  95.629 134.942  1.00  0.00    -0.364 OA
ATOM     16  H   UNL     1     146.271  96.554 134.906  1.00  0.00     0.213 HD
ENDBRANCH   5  15
BRANCH   7  17
ATOM     17  C   UNL     1     143.289  95.719 138.871  1.00  0.00     0.000 A 
ATOM     18  C   UNL     1     142.616  94.590 139.357  1.00  0.00     0.010 A 
ATOM     19  C   UNL     1     143.819  96.652 139.772  1.00  0.00     0.010 A 
ATOM     20  C   UNL     1     142.500  94.382 140.731  1.00  0.00     0.001 A 
ATOM     21  C   UNL     1     143.701  96.438 141.147  1.00  0.00     0.001 A 
ATOM     22  C   UNL     1     143.046  95.303 141.625  1.00  0.00     0.000 A 
ENDBRANCH   7  17
TORSDOF 2
ENDMDL
MODEL 9
REMARK VINA RESULT:    -6.098      3.245      4.809
REMARK INTER + INTRA:          -7.027
REMARK INTER:                  -6.525
REMARK INTRA:                  -0.502
REMARK UNBOUND:                -0.394
REMARK SMILES CN1C(=O)C(O)N=C(c2ccccc2)c2cc(Cl)ccc21
REMARK SMILES IDX 1 1 2 2 3 3 4 4 5 5 7 6 8 7 15 8 16 9 17 10 18 11 19 12
REMARK SMILES IDX 20 13 21 14 6 15 9 17 10 18 14 19 11 20 13 21 12 22
REMARK H PARENT 6 16
ROOT
ATOM      1  C   UNL     1     140.742  99.859 132.663  1.00  0.00     0.153 C 
ATOM      2  N   UNL     1     140.825  98.477 133.120  1.00  0.00    -0.311 N 
ATOM      3  C   UNL     1     139.621  97.846 133.459  1.00  0.00     0.278 C 
ATOM      4  O   UNL     1     138.545  98.453 133.503  1.00  0.00    -0.269 OA
ATOM      5  C   UNL     1     139.680  96.315 133.727  1.00  0.00     0.323 C 
ATOM      6  N   UNL     1     140.282  96.144 135.040  1.00  0.00    -0.243 NA
ATOM      7  C   UNL     1     141.542  96.394 135.164  1.00  0.00     0.078 C 
ATOM      8  C   UNL     1     142.435  96.796 134.035  1.00  0.00     0.026 A 
ATOM      9  C   UNL     1     143.676  96.139 133.943  1.00  0.00     0.033 A 
ATOM     10  C   UNL     1     144.607  96.533 132.990  1.00  0.00     0.041 A 
ATOM     11  Cl  UNL     1     146.127  95.737 132.893  1.00  0.00    -0.084 Cl
ATOM     12  C   UNL     1     144.316  97.578 132.123  1.00  0.00     0.023 A 
ATOM     13  C   UNL     1     143.075  98.217 132.194  1.00  0.00     0.028 A 
ATOM     14  C   UNL     1     142.097  97.824 133.129  1.00  0.00     0.053 A 
ENDROOT
BRANCH   5  15
ATOM     15  O   UNL     1     138.380  95.750 133.656  1.00  0.00    -0.364 OA
ATOM     16  H   UNL     1     138.190  95.737 132.700  1.00  0.00     0.213 HD
ENDBRANCH   5  15
BRANCH   7  17
ATOM     17  C   UNL     1     142.131  96.265 136.536  1.00  0.00     0.000 A 
ATOM     18  C   UNL     1     142.120  95.013 137.164  1.00  0.00     0.010 A 
ATOM     19  C   UNL     1     142.662  97.374 137.206  1.00  0.00     0.010 A 
ATOM     20  C   UNL     1     142.661  94.866 138.441  1.00  0.00     0.001 A 
ATOM     21  C   UNL     1     143.204  97.221 138.484  1.00  0.00     0.001 A 
ATOM     22  C   UNL     1     143.207  95.969 139.099  1.00  0.00     0.000 A 
ENDBRANCH   7  17
TORSDOF 2
ENDMDL
