MODEL 1
REMARK VINA RESULT:    -9.788      0.000      0.000
REMARK INTER + INTRA:         -11.021
REMARK INTER:                 -10.646
REMARK INTRA:                  -0.375
REMARK UNBOUND:                -0.375
REMARK SMILES CN1C(=O)C(O)N=C(c2ccccc2)c2cc(Cl)ccc21
REMARK SMILES IDX 1 1 2 2 3 3 4 4 5 5 7 6 8 7 15 8 16 9 17 10 18 11 19 12
REMARK SMILES IDX 20 13 21 14 6 15 9 17 10 18 14 19 11 20 13 21 12 22
REMARK H PARENT 6 16
ROOT
ATOM      1  C   UNL     1     116.320 160.637 112.481  1.00  0.00     0.153 C 
ATOM      2  N   UNL     1     117.294 159.799 111.792  1.00  0.00    -0.311 N 
ATOM      3  C   UNL     1     118.142 160.432 110.874  1.00  0.00     0.278 C 
ATOM      4  O   UNL     1     117.999 161.616 110.549  1.00  0.00    -0.269 OA
ATOM      5  C   UNL     1     119.323 159.591 110.311  1.00  0.00     0.323 C 
ATOM      6  N   UNL     1     118.755 158.670 109.339  1.00  0.00    -0.243 NA
ATOM      7  C   UNL     1     118.037 157.693 109.780  1.00  0.00     0.078 C 
ATOM      8  C   UNL     1     117.796 157.414 111.229  1.00  0.00     0.026 A 
ATOM      9  C   UNL     1     117.940 156.079 111.650  1.00  0.00     0.033 A 
ATOM     10  C   UNL     1     117.625 155.720 112.955  1.00  0.00     0.041 A 
ATOM     11  Cl  UNL     1     117.787 154.084 113.458  1.00  0.00    -0.084 Cl
ATOM     12  C   UNL     1     117.168 156.678 113.851  1.00  0.00     0.023 A 
ATOM     13  C   UNL     1     117.048 158.009 113.443  1.00  0.00     0.028 A 
ATOM     14  C   UNL     1     117.385 158.414 112.137  1.00  0.00     0.053 A 
ENDROOT
BRANCH   5  15
ATOM     15  O   UNL     1     120.304 160.440 109.735  1.00  0.00    -0.364 OA
ATOM     16  H   UNL     1     120.107 160.400 108.782  1.00  0.00     0.213 HD
ENDBRANCH   5  15
BRANCH   7  17
ATOM     17  C   UNL     1     117.415 156.789 108.761  1.00  0.00     0.000 A 
ATOM     18  C   UNL     1     118.181 156.376 107.664  1.00  0.00     0.010 A 
ATOM     19  C   UNL     1     116.081 156.376 108.872  1.00  0.00     0.010 A 
ATOM     20  C   UNL     1     117.626 155.534 106.700  1.00  0.00     0.001 A 
ATOM     21  C   UNL     1     115.531 155.532 107.905  1.00  0.00     0.001 A 
ATOM     22  C   UNL     1     116.303 155.109 106.823  1.00  0.00     0.000 A 
ENDBRANCH   7  17
TORSDOF 2
ENDMDL
MODEL 2
REMARK VINA RESULT:    -8.151      2.630      3.579
REMARK INTER + INTRA:          -9.241
REMARK INTER:                  -9.427
REMARK INTRA:                   0.187
REMARK UNBOUND:                -0.375
REMARK SMILES CN1C(=O)C(O)N=C(c2ccccc2)c2cc(Cl)ccc21
REMARK SMILES IDX 1 1 2 2 3 3 4 4 5 5 7 6 8 7 15 8 16 9 17 10 18 11 19 12
REMARK SMILES IDX 20 13 21 14 6 15 9 17 10 18 14 19 11 20 13 21 12 22
REMARK H PARENT 6 16
ROOT
ATOM      1  C   UNL     1     119.146 162.720 109.855  1.00  0.00     0.153 C 
ATOM      2  N   UNL     1     119.948 161.534 109.577  1.00  0.00    -0.311 N 
ATOM      3  C   UNL     1     121.210 161.741 109.005  1.00  0.00     0.278 C 
ATOM      4  O   UNL     1     121.590 162.853 108.624  1.00  0.00    -0.269 OA
ATOM      5  C   UNL     1     122.153 160.506 108.918  1.00  0.00     0.323 C 
ATOM      6  N   UNL     1     121.659 159.679 107.830  1.00  0.00    -0.243 NA
ATOM      7  C   UNL     1     120.551 159.042 108.009  1.00  0.00     0.078 C 
ATOM      8  C   UNL     1     119.770 159.057 109.284  1.00  0.00     0.026 A 
ATOM      9  C   UNL     1     119.309 157.815 109.759  1.00  0.00     0.033 A 
ATOM     10  C   UNL     1     118.483 157.757 110.876  1.00  0.00     0.041 A 
ATOM     11  Cl  UNL     1     117.909 156.239 111.442  1.00  0.00    -0.084 Cl
ATOM     12  C   UNL     1     118.110 158.925 111.528  1.00  0.00     0.023 A 
ATOM     13  C   UNL     1     118.586 160.158 111.074  1.00  0.00     0.028 A 
ATOM     14  C   UNL     1     119.448 160.251 109.963  1.00  0.00     0.053 A 
ENDROOT
BRANCH   5  15
ATOM     15  O   UNL     1     123.493 160.923 108.708  1.00  0.00    -0.364 OA
ATOM     16  H   UNL     1     123.409 161.877 108.529  1.00  0.00     0.213 HD
ENDBRANCH   5  15
BRANCH   7  17
ATOM     17  C   UNL     1     120.030 158.239 106.857  1.00  0.00     0.000 A 
ATOM     18  C   UNL     1     120.718 158.277 105.638  1.00  0.00     0.010 A 
ATOM     19  C   UNL     1     118.859 157.479 106.970  1.00  0.00     0.010 A 
ATOM     20  C   UNL     1     120.254 157.539 104.549  1.00  0.00     0.001 A 
ATOM     21  C   UNL     1     118.399 156.741 105.878  1.00  0.00     0.001 A 
ATOM     22  C   UNL     1     119.097 156.769 104.670  1.00  0.00     0.000 A 
ENDBRANCH   7  17
TORSDOF 2
ENDMDL
MODEL 3
REMARK VINA RESULT:    -7.995      1.863      4.834
REMARK INTER + INTRA:          -9.071
REMARK INTER:                  -8.886
REMARK INTRA:                  -0.185
REMARK UNBOUND:                -0.375
REMARK SMILES CN1C(=O)C(O)N=C(c2ccccc2)c2cc(Cl)ccc21
REMARK SMILES IDX 1 1 2 2 3 3 4 4 5 5 7 6 8 7 15 8 16 9 17 10 18 11 19 12
REMARK SMILES IDX 20 13 21 14 6 15 9 17 10 18 14 19 11 20 13 21 12 22
REMARK H PARENT 6 16
ROOT
ATOM      1  C   UNL     1     120.664 157.514 107.582  1.00  0.00     0.153 C 
ATOM      2  N   UNL     1     119.612 157.945 108.494  1.00  0.00    -0.311 N 
ATOM      3  C   UNL     1     119.875 159.074 109.280  1.00  0.00     0.278 C 
ATOM      4  O   UNL     1     120.987 159.614 109.311  1.00  0.00    -0.269 OA
ATOM      5  C   UNL     1     118.681 159.668 110.082  1.00  0.00     0.323 C 
ATOM      6  N   UNL     1     118.455 158.781 111.212  1.00  0.00    -0.243 NA
ATOM      7  C   UNL     1     117.950 157.618 110.977  1.00  0.00     0.078 C 
ATOM      8  C   UNL     1     117.529 157.142 109.623  1.00  0.00     0.026 A 
ATOM      9  C   UNL     1     116.273 156.514 109.534  1.00  0.00     0.033 A 
ATOM     10  C   UNL     1     115.859 155.946 108.335  1.00  0.00     0.041 A 
ATOM     11  Cl  UNL     1     114.331 155.166 108.236  1.00  0.00    -0.084 Cl
ATOM     12  C   UNL     1     116.684 155.996 107.219  1.00  0.00     0.023 A 
ATOM     13  C   UNL     1     117.922 156.641 107.297  1.00  0.00     0.028 A 
ATOM     14  C   UNL     1     118.361 157.252 108.488  1.00  0.00     0.053 A 
ENDROOT
BRANCH   5  15
ATOM     15  O   UNL     1     118.972 160.995 110.491  1.00  0.00    -0.364 OA
ATOM     16  H   UNL     1     118.091 161.384 110.642  1.00  0.00     0.213 HD
ENDBRANCH   5  15
BRANCH   7  17
ATOM     17  C   UNL     1     117.776 156.699 112.147  1.00  0.00     0.000 A 
ATOM     18  C   UNL     1     117.617 157.250 113.425  1.00  0.00     0.010 A 
ATOM     19  C   UNL     1     117.800 155.307 111.989  1.00  0.00     0.010 A 
ATOM     20  C   UNL     1     117.455 156.416 114.531  1.00  0.00     0.001 A 
ATOM     21  C   UNL     1     117.636 154.477 113.100  1.00  0.00     0.001 A 
ATOM     22  C   UNL     1     117.460 155.031 114.368  1.00  0.00     0.000 A 
ENDBRANCH   7  17
TORSDOF 2
ENDMDL
MODEL 4
REMARK VINA RESULT:    -7.166      3.320      4.902
REMARK INTER + INTRA:          -8.169
REMARK INTER:                  -8.225
REMARK INTRA:                   0.056
REMARK UNBOUND:                -0.375
REMARK SMILES CN1C(=O)C(O)N=C(c2ccccc2)c2cc(Cl)ccc21
REMARK SMILES IDX 1 1 2 2 3 3 4 4 5 5 7 6 8 7 15 8 16 9 17 10 18 11 19 12
REMARK SMILES IDX 20 13 21 14 6 15 9 17 10 18 14 19 11 20 13 21 12 22
REMARK H PARENT 6 16
ROOT
ATOM      1  C   UNL     1     117.819 155.820 112.914  1.00  0.00     0.153 C 
ATOM      2  N   UNL     1     117.597 156.502 111.645  1.00  0.00    -0.311 N 
ATOM      3  C   UNL     1     117.436 155.696 110.510  1.00  0.00     0.278 C 
ATOM      4  O   UNL     1     117.602 154.472 110.539  1.00  0.00    -0.269 OA
ATOM      5  C   UNL     1     116.976 156.405 109.203  1.00  0.00     0.323 C 
ATOM      6  N   UNL     1     118.134 157.116 108.685  1.00  0.00    -0.243 NA
ATOM      7  C   UNL     1     118.535 158.164 109.323  1.00  0.00     0.078 C 
ATOM      8  C   UNL     1     117.854 158.726 110.529  1.00  0.00     0.026 A 
ATOM      9  C   UNL     1     117.646 160.117 110.549  1.00  0.00     0.033 A 
ATOM     10  C   UNL     1     117.121 160.730 111.681  1.00  0.00     0.041 A 
ATOM     11  Cl  UNL     1     116.884 162.432 111.705  1.00  0.00    -0.084 Cl
ATOM     12  C   UNL     1     116.799 159.970 112.798  1.00  0.00     0.023 A 
ATOM     13  C   UNL     1     116.981 158.584 112.773  1.00  0.00     0.028 A 
ATOM     14  C   UNL     1     117.484 157.928 111.632  1.00  0.00     0.053 A 
ENDROOT
BRANCH   5  15
ATOM     15  O   UNL     1     116.472 155.455 108.277  1.00  0.00    -0.364 OA
ATOM     16  H   UNL     1     116.278 154.678 108.832  1.00  0.00     0.213 HD
ENDBRANCH   5  15
BRANCH   7  17
ATOM     17  C   UNL     1     119.761 158.850 108.804  1.00  0.00     0.000 A 
ATOM     18  C   UNL     1     120.300 158.443 107.577  1.00  0.00     0.010 A 
ATOM     19  C   UNL     1     120.391 159.866 109.536  1.00  0.00     0.010 A 
ATOM     20  C   UNL     1     121.441 159.066 107.073  1.00  0.00     0.001 A 
ATOM     21  C   UNL     1     121.533 160.487 109.026  1.00  0.00     0.001 A 
ATOM     22  C   UNL     1     122.055 160.089 107.795  1.00  0.00     0.000 A 
ENDBRANCH   7  17
TORSDOF 2
ENDMDL
MODEL 5
REMARK VINA RESULT:    -6.946      4.741      6.833
REMARK INTER + INTRA:          -7.931
REMARK INTER:                  -7.497
REMARK INTRA:                  -0.434
REMARK UNBOUND:                -0.375
REMARK SMILES CN1C(=O)C(O)N=C(c2ccccc2)c2cc(Cl)ccc21
REMARK SMILES IDX 1 1 2 2 3 3 4 4 5 5 7 6 8 7 15 8 16 9 17 10 18 11 19 12
REMARK SMILES IDX 20 13 21 14 6 15 9 17 10 18 14 19 11 20 13 21 12 22
REMARK H PARENT 6 16
ROOT
ATOM      1  C   UNL     1     116.136 154.903 117.534  1.00  0.00     0.153 C 
ATOM      2  N   UNL     1     116.496 156.203 116.979  1.00  0.00    -0.311 N 
ATOM      3  C   UNL     1     116.734 157.239 117.891  1.00  0.00     0.278 C 
ATOM      4  O   UNL     1     116.525 157.115 119.103  1.00  0.00    -0.269 OA
ATOM      5  C   UNL     1     117.335 158.555 117.319  1.00  0.00     0.323 C 
ATOM      6  N   UNL     1     116.255 159.243 116.631  1.00  0.00    -0.243 NA
ATOM      7  C   UNL     1     115.831 158.744 115.519  1.00  0.00     0.078 C 
ATOM      8  C   UNL     1     116.417 157.534 114.863  1.00  0.00     0.026 A 
ATOM      9  C   UNL     1     116.668 157.621 113.482  1.00  0.00     0.033 A 
ATOM     10  C   UNL     1     117.107 156.505 112.779  1.00  0.00     0.041 A 
ATOM     11  Cl  UNL     1     117.397 156.613 111.089  1.00  0.00    -0.084 Cl
ATOM     12  C   UNL     1     117.299 155.298 113.439  1.00  0.00     0.023 A 
ATOM     13  C   UNL     1     117.074 155.214 114.816  1.00  0.00     0.028 A 
ATOM     14  C   UNL     1     116.657 156.333 115.564  1.00  0.00     0.053 A 
ENDROOT
BRANCH   5  15
ATOM     15  O   UNL     1     117.890 159.339 118.363  1.00  0.00    -0.364 OA
ATOM     16  H   UNL     1     117.292 159.173 119.114  1.00  0.00     0.213 HD
ENDBRANCH   5  15
BRANCH   7  17
ATOM     17  C   UNL     1     114.681 159.436 114.853  1.00  0.00     0.000 A 
ATOM     18  C   UNL     1     114.926 160.600 114.114  1.00  0.00     0.010 A 
ATOM     19  C   UNL     1     113.371 158.958 114.982  1.00  0.00     0.010 A 
ATOM     20  C   UNL     1     113.872 161.264 113.485  1.00  0.00     0.001 A 
ATOM     21  C   UNL     1     112.320 159.625 114.350  1.00  0.00     0.001 A 
ATOM     22  C   UNL     1     112.571 160.774 113.600  1.00  0.00     0.000 A 
ENDBRANCH   7  17
TORSDOF 2
ENDMDL
MODEL 6
REMARK VINA RESULT:    -6.574      2.663      5.244
REMARK INTER + INTRA:          -7.525
REMARK INTER:                  -7.234
REMARK INTRA:                  -0.292
REMARK UNBOUND:                -0.375
REMARK SMILES CN1C(=O)C(O)N=C(c2ccccc2)c2cc(Cl)ccc21
REMARK SMILES IDX 1 1 2 2 3 3 4 4 5 5 7 6 8 7 15 8 16 9 17 10 18 11 19 12
REMARK SMILES IDX 20 13 21 14 6 15 9 17 10 18 14 19 11 20 13 21 12 22
REMARK H PARENT 6 16
ROOT
ATOM      1  C   UNL     1     122.909 159.864 108.243  1.00  0.00     0.153 C 
ATOM      2  N   UNL     1     121.499 160.138 108.498  1.00  0.00    -0.311 N 
ATOM      3  C   UNL     1     121.185 161.384 109.057  1.00  0.00     0.278 C 
ATOM      4  O   UNL     1     122.054 162.173 109.445  1.00  0.00    -0.269 OA
ATOM      5  C   UNL     1     119.679 161.767 109.119  1.00  0.00     0.323 C 
ATOM      6  N   UNL     1     119.096 160.995 110.205  1.00  0.00    -0.243 NA
ATOM      7  C   UNL     1     118.948 159.725 110.032  1.00  0.00     0.078 C 
ATOM      8  C   UNL     1     119.287 159.003 108.767  1.00  0.00     0.026 A 
ATOM      9  C   UNL     1     118.333 158.088 108.285  1.00  0.00     0.033 A 
ATOM     10  C   UNL     1     118.620 157.297 107.178  1.00  0.00     0.041 A 
ATOM     11  Cl  UNL     1     117.457 156.170 106.604  1.00  0.00    -0.084 Cl
ATOM     12  C   UNL     1     119.850 157.408 106.543  1.00  0.00     0.023 A 
ATOM     13  C   UNL     1     120.790 158.334 107.004  1.00  0.00     0.028 A 
ATOM     14  C   UNL     1     120.522 159.171 108.105  1.00  0.00     0.053 A 
ENDROOT
BRANCH   5  15
ATOM     15  O   UNL     1     119.533 163.164 109.317  1.00  0.00    -0.364 OA
ATOM     16  H   UNL     1     118.991 163.224 110.125  1.00  0.00     0.213 HD
ENDBRANCH   5  15
BRANCH   7  17
ATOM     17  C   UNL     1     118.398 158.939 111.182  1.00  0.00     0.000 A 
ATOM     18  C   UNL     1     118.915 157.664 111.442  1.00  0.00     0.010 A 
ATOM     19  C   UNL     1     117.361 159.443 111.978  1.00  0.00     0.010 A 
ATOM     20  C   UNL     1     118.419 156.911 112.507  1.00  0.00     0.001 A 
ATOM     21  C   UNL     1     116.869 158.686 113.044  1.00  0.00     0.001 A 
ATOM     22  C   UNL     1     117.399 157.423 113.309  1.00  0.00     0.000 A 
ENDBRANCH   7  17
TORSDOF 2
ENDMDL
MODEL 7
REMARK VINA RESULT:    -6.470      2.935      4.423
REMARK INTER + INTRA:          -7.413
REMARK INTER:                  -7.321
REMARK INTRA:                  -0.092
REMARK UNBOUND:                -0.375
REMARK SMILES CN1C(=O)C(O)N=C(c2ccccc2)c2cc(Cl)ccc21
REMARK SMILES IDX 1 1 2 2 3 3 4 4 5 5 7 6 8 7 15 8 16 9 17 10 18 11 19 12
REMARK SMILES IDX 20 13 21 14 6 15 9 17 10 18 14 19 11 20 13 21 12 22
REMARK H PARENT 6 16
ROOT
ATOM      1  C   UNL     1     112.146 159.729 114.121  1.00  0.00     0.153 C 
ATOM      2  N   UNL     1     113.594 159.870 114.206  1.00  0.00    -0.311 N 
ATOM      3  C   UNL     1     114.128 161.134 113.920  1.00  0.00     0.278 C 
ATOM      4  O   UNL     1     113.436 162.061 113.485  1.00  0.00    -0.269 OA
ATOM      5  C   UNL     1     115.638 161.346 114.229  1.00  0.00     0.323 C 
ATOM      6  N   UNL     1     116.379 160.660 113.182  1.00  0.00    -0.243 NA
ATOM      7  C   UNL     1     116.377 159.369 113.186  1.00  0.00     0.078 C 
ATOM      8  C   UNL     1     115.708 158.533 114.229  1.00  0.00     0.026 A 
ATOM      9  C   UNL     1     116.451 157.459 114.753  1.00  0.00     0.033 A 
ATOM     10  C   UNL     1     115.862 156.569 115.643  1.00  0.00     0.041 A 
ATOM     11  Cl  UNL     1     116.769 155.250 116.267  1.00  0.00    -0.084 Cl
ATOM     12  C   UNL     1     114.536 156.737 116.021  1.00  0.00     0.023 A 
ATOM     13  C   UNL     1     113.802 157.818 115.522  1.00  0.00     0.028 A 
ATOM     14  C   UNL     1     114.376 158.754 114.640  1.00  0.00     0.053 A 
ENDROOT
BRANCH   5  15
ATOM     15  O   UNL     1     115.942 162.731 114.280  1.00  0.00    -0.364 OA
ATOM     16  H   UNL     1     115.191 163.145 113.817  1.00  0.00     0.213 HD
ENDBRANCH   5  15
BRANCH   7  17
ATOM     17  C   UNL     1     117.099 158.682 112.068  1.00  0.00     0.000 A 
ATOM     18  C   UNL     1     118.054 159.398 111.336  1.00  0.00     0.010 A 
ATOM     19  C   UNL     1     116.816 157.353 111.727  1.00  0.00     0.010 A 
ATOM     20  C   UNL     1     118.741 158.781 110.290  1.00  0.00     0.001 A 
ATOM     21  C   UNL     1     117.507 156.740 110.680  1.00  0.00     0.001 A 
ATOM     22  C   UNL     1     118.470 157.452 109.965  1.00  0.00     0.000 A 
ENDBRANCH   7  17
TORSDOF 2
ENDMDL
MODEL 8
REMARK VINA RESULT:    -6.352      4.058      6.686
REMARK INTER + INTRA:          -7.284
REMARK INTER:                  -7.583
REMARK INTRA:                   0.299
REMARK UNBOUND:                -0.375
REMARK SMILES CN1C(=O)C(O)N=C(c2ccccc2)c2cc(Cl)ccc21
REMARK SMILES IDX 1 1 2 2 3 3 4 4 5 5 7 6 8 7 15 8 16 9 17 10 18 11 19 12
REMARK SMILES IDX 20 13 21 14 6 15 9 17 10 18 14 19 11 20 13 21 12 22
REMARK H PARENT 6 16
ROOT
ATOM      1  C   UNL     1     117.414 156.001 111.846  1.00  0.00     0.153 C 
ATOM      2  N   UNL     1     117.173 157.013 112.868  1.00  0.00    -0.311 N 
ATOM      3  C   UNL     1     117.062 156.565 114.191  1.00  0.00     0.278 C 
ATOM      4  O   UNL     1     117.034 155.365 114.483  1.00  0.00    -0.269 OA
ATOM      5  C   UNL     1     117.034 157.655 115.302  1.00  0.00     0.323 C 
ATOM      6  N   UNL     1     115.710 158.255 115.264  1.00  0.00    -0.243 NA
ATOM      7  C   UNL     1     115.420 159.016 114.263  1.00  0.00     0.078 C 
ATOM      8  C   UNL     1     116.375 159.364 113.167  1.00  0.00     0.026 A 
ATOM      9  C   UNL     1     116.442 160.718 112.791  1.00  0.00     0.033 A 
ATOM     10  C   UNL     1     117.221 161.106 111.707  1.00  0.00     0.041 A 
ATOM     11  Cl  UNL     1     117.286 162.759 111.243  1.00  0.00    -0.084 Cl
ATOM     12  C   UNL     1     117.938 160.157 110.991  1.00  0.00     0.023 A 
ATOM     13  C   UNL     1     117.894 158.814 111.376  1.00  0.00     0.028 A 
ATOM     14  C   UNL     1     117.137 158.391 112.487  1.00  0.00     0.053 A 
ENDROOT
BRANCH   5  15
ATOM     15  O   UNL     1     117.325 157.079 116.566  1.00  0.00    -0.364 OA
ATOM     16  H   UNL     1     118.160 157.510 116.825  1.00  0.00     0.213 HD
ENDBRANCH   5  15
BRANCH   7  17
ATOM     17  C   UNL     1     114.033 159.580 114.214  1.00  0.00     0.000 A 
ATOM     18  C   UNL     1     113.015 158.941 114.932  1.00  0.00     0.010 A 
ATOM     19  C   UNL     1     113.735 160.712 113.444  1.00  0.00     0.010 A 
ATOM     20  C   UNL     1     111.714 159.446 114.903  1.00  0.00     0.001 A 
ATOM     21  C   UNL     1     112.432 161.214 113.419  1.00  0.00     0.001 A 
ATOM     22  C   UNL     1     111.425 160.584 114.150  1.00  0.00     0.000 A 
ENDBRANCH   7  17
TORSDOF 2
ENDMDL
MODEL 9
REMARK VINA RESULT:    -6.176      4.082      6.299
REMARK INTER + INTRA:          -7.093
REMARK INTER:                  -6.659
REMARK INTRA:                  -0.434
REMARK UNBOUND:                -0.375
REMARK SMILES CN1C(=O)C(O)N=C(c2ccccc2)c2cc(Cl)ccc21
REMARK SMILES IDX 1 1 2 2 3 3 4 4 5 5 7 6 8 7 15 8 16 9 17 10 18 11 19 12
REMARK SMILES IDX 20 13 21 14 6 15 9 17 10 18 14 19 11 20 13 21 12 22
REMARK H PARENT 6 16
ROOT
ATOM      1  C   UNL     1     116.301 163.308 113.411  1.00  0.00     0.153 C 
ATOM      2  N   UNL     1     115.628 162.020 113.291  1.00  0.00    -0.311 N 
ATOM      3  C   UNL     1     114.280 161.970 113.672  1.00  0.00     0.278 C 
ATOM      4  O   UNL     1     113.708 162.925 114.209  1.00  0.00    -0.269 OA
ATOM      5  C   UNL     1     113.503 160.665 113.334  1.00  0.00     0.323 C 
ATOM      6  N   UNL     1     113.938 159.660 114.291  1.00  0.00    -0.243 NA
ATOM      7  C   UNL     1     115.133 159.190 114.171  1.00  0.00     0.078 C 
ATOM      8  C   UNL     1     116.082 159.570 113.080  1.00  0.00     0.026 A 
ATOM      9  C   UNL     1     116.764 158.520 112.438  1.00  0.00     0.033 A 
ATOM     10  C   UNL     1     117.743 158.797 111.492  1.00  0.00     0.041 A 
ATOM     11  Cl  UNL     1     118.584 157.511 110.724  1.00  0.00    -0.084 Cl
ATOM     12  C   UNL     1     118.052 160.114 111.174  1.00  0.00     0.023 A 
ATOM     13  C   UNL     1     117.358 161.159 111.791  1.00  0.00     0.028 A 
ATOM     14  C   UNL     1     116.341 160.913 112.734  1.00  0.00     0.053 A 
ENDROOT
BRANCH   5  15
ATOM     15  O   UNL     1     112.104 160.894 113.397  1.00  0.00    -0.364 OA
ATOM     16  H   UNL     1     111.842 160.961 112.460  1.00  0.00     0.213 HD
ENDBRANCH   5  15
BRANCH   7  17
ATOM     17  C   UNL     1     115.582 158.197 115.199  1.00  0.00     0.000 A 
ATOM     18  C   UNL     1     115.162 156.865 115.085  1.00  0.00     0.010 A 
ATOM     19  C   UNL     1     116.384 158.581 116.281  1.00  0.00     0.010 A 
ATOM     20  C   UNL     1     115.566 155.921 116.029  1.00  0.00     0.001 A 
ATOM     21  C   UNL     1     116.786 157.632 117.223  1.00  0.00     0.001 A 
ATOM     22  C   UNL     1     116.380 156.303 117.095  1.00  0.00     0.000 A 
ENDBRANCH   7  17
TORSDOF 2
ENDMDL
