MODEL 1
REMARK VINA RESULT:    -7.774      0.000      0.000
REMARK INTER + INTRA:          -7.916
REMARK INTER:                  -8.229
REMARK INTRA:                   0.313
REMARK UNBOUND:                 0.313
REMARK SMILES CN1C(=O)CN=C(c2ccccc2)c2cc(Cl)ccc21
REMARK SMILES IDX 1 1 2 2 3 3 4 4 5 5 6 6 7 7 14 8 15 9 16 10 17 11 18 12
REMARK SMILES IDX 19 13 20 14 8 15 9 16 13 17 10 18 12 19 11 20
REMARK H PARENT
ROOT
ATOM      1  C   UNL     1     141.834  97.610 137.362  1.00  0.00     0.153 C 
ATOM      2  N   UNL     1     142.849  96.948 138.170  1.00  0.00    -0.313 N 
ATOM      3  C   UNL     1     144.019  96.549 137.512  1.00  0.00     0.248 C 
ATOM      4  O   UNL     1     144.226  96.801 136.322  1.00  0.00    -0.272 OA
ATOM      5  C   UNL     1     145.004  95.700 138.304  1.00  0.00     0.243 C 
ATOM      6  N   UNL     1     145.673  96.542 139.290  1.00  0.00    -0.274 NA
ATOM      7  C   UNL     1     144.981  96.966 140.293  1.00  0.00     0.075 C 
ATOM      8  C   UNL     1     143.557  96.592 140.545  1.00  0.00     0.026 A 
ATOM      9  C   UNL     1     143.221  96.220 141.861  1.00  0.00     0.033 A 
ATOM     10  C   UNL     1     141.897  95.972 142.201  1.00  0.00     0.041 A 
ATOM     11  Cl  UNL     1     141.493  95.535 143.813  1.00  0.00    -0.084 Cl
ATOM     12  C   UNL     1     140.898  96.088 141.244  1.00  0.00     0.023 A 
ATOM     13  C   UNL     1     141.232  96.431 139.930  1.00  0.00     0.028 A 
ATOM     14  C   UNL     1     142.567  96.662 139.544  1.00  0.00     0.053 A 
ENDROOT
BRANCH   7  15
ATOM     15  C   UNL     1     145.667  97.883 141.259  1.00  0.00     0.000 A 
ATOM     16  C   UNL     1     144.985  98.288 142.413  1.00  0.00     0.010 A 
ATOM     17  C   UNL     1     146.982  98.315 141.043  1.00  0.00     0.010 A 
ATOM     18  C   UNL     1     145.602  99.142 143.328  1.00  0.00     0.001 A 
ATOM     19  C   UNL     1     147.595  99.169 141.961  1.00  0.00     0.001 A 
ATOM     20  C   UNL     1     146.905  99.585 143.099  1.00  0.00     0.000 A 
ENDBRANCH   7  15
TORSDOF 1
ENDMDL
MODEL 2
REMARK VINA RESULT:    -7.298      4.073      5.462
REMARK INTER + INTRA:          -7.412
REMARK INTER:                  -7.412
REMARK INTRA:                  -0.000
REMARK UNBOUND:                 0.313
REMARK SMILES CN1C(=O)CN=C(c2ccccc2)c2cc(Cl)ccc21
REMARK SMILES IDX 1 1 2 2 3 3 4 4 5 5 6 6 7 7 14 8 15 9 16 10 17 11 18 12
REMARK SMILES IDX 19 13 20 14 8 15 9 16 13 17 10 18 12 19 11 20
REMARK H PARENT
ROOT
ATOM      1  C   UNL     1     140.822  94.989 134.063  1.00  0.00     0.153 C 
ATOM      2  N   UNL     1     141.394  95.856 135.085  1.00  0.00    -0.313 N 
ATOM      3  C   UNL     1     140.663  97.001 135.424  1.00  0.00     0.248 C 
ATOM      4  O   UNL     1     139.553  97.243 134.941  1.00  0.00    -0.272 OA
ATOM      5  C   UNL     1     141.334  98.001 136.355  1.00  0.00     0.243 C 
ATOM      6  N   UNL     1     141.367  97.447 137.704  1.00  0.00    -0.274 NA
ATOM      7  C   UNL     1     142.161  96.455 137.931  1.00  0.00     0.075 C 
ATOM      8  C   UNL     1     143.098  95.884 136.918  1.00  0.00     0.026 A 
ATOM      9  C   UNL     1     144.416  95.631 137.344  1.00  0.00     0.033 A 
ATOM     10  C   UNL     1     145.314  94.993 136.497  1.00  0.00     0.041 A 
ATOM     11  Cl  UNL     1     146.916  94.671 137.030  1.00  0.00    -0.084 Cl
ATOM     12  C   UNL     1     144.916  94.604 135.225  1.00  0.00     0.023 A 
ATOM     13  C   UNL     1     143.616  94.879 134.789  1.00  0.00     0.028 A 
ATOM     14  C   UNL     1     142.689  95.548 135.612  1.00  0.00     0.053 A 
ENDROOT
BRANCH   7  15
ATOM     15  C   UNL     1     142.132  95.856 139.305  1.00  0.00     0.000 A 
ATOM     16  C   UNL     1     141.505  96.560 140.340  1.00  0.00     0.010 A 
ATOM     17  C   UNL     1     142.692  94.599 139.561  1.00  0.00     0.010 A 
ATOM     18  C   UNL     1     141.464  96.024 141.628  1.00  0.00     0.001 A 
ATOM     19  C   UNL     1     142.650  94.066 140.851  1.00  0.00     0.001 A 
ATOM     20  C   UNL     1     142.041  94.780 141.884  1.00  0.00     0.000 A 
ENDBRANCH   7  15
TORSDOF 1
ENDMDL
MODEL 3
REMARK VINA RESULT:    -6.987      4.111      6.258
REMARK INTER + INTRA:          -7.083
REMARK INTER:                  -6.776
REMARK INTRA:                  -0.307
REMARK UNBOUND:                 0.313
REMARK SMILES CN1C(=O)CN=C(c2ccccc2)c2cc(Cl)ccc21
REMARK SMILES IDX 1 1 2 2 3 3 4 4 5 5 6 6 7 7 14 8 15 9 16 10 17 11 18 12
REMARK SMILES IDX 19 13 20 14 8 15 9 16 13 17 10 18 12 19 11 20
REMARK H PARENT
ROOT
ATOM      1  C   UNL     1     138.707  96.297 133.674  1.00  0.00     0.153 C 
ATOM      2  N   UNL     1     140.037  96.767 134.039  1.00  0.00    -0.313 N 
ATOM      3  C   UNL     1     140.203  98.151 134.171  1.00  0.00     0.248 C 
ATOM      4  O   UNL     1     139.263  98.943 134.057  1.00  0.00    -0.272 OA
ATOM      5  C   UNL     1     141.622  98.662 134.374  1.00  0.00     0.243 C 
ATOM      6  N   UNL     1     142.058  98.335 135.728  1.00  0.00    -0.274 NA
ATOM      7  C   UNL     1     142.289  97.096 136.005  1.00  0.00     0.075 C 
ATOM      8  C   UNL     1     142.207  95.985 135.010  1.00  0.00     0.026 A 
ATOM      9  C   UNL     1     143.265  95.056 135.006  1.00  0.00     0.033 A 
ATOM     10  C   UNL     1     143.205  93.932 134.192  1.00  0.00     0.041 A 
ATOM     11  Cl  UNL     1     144.493  92.793 134.205  1.00  0.00    -0.084 Cl
ATOM     12  C   UNL     1     142.103  93.720 133.377  1.00  0.00     0.023 A 
ATOM     13  C   UNL     1     141.062  94.654 133.358  1.00  0.00     0.028 A 
ATOM     14  C   UNL     1     141.103  95.819 134.150  1.00  0.00     0.053 A 
ENDROOT
BRANCH   7  15
ATOM     15  C   UNL     1     142.670  96.771 137.418  1.00  0.00     0.000 A 
ATOM     16  C   UNL     1     141.662  96.472 138.342  1.00  0.00     0.010 A 
ATOM     17  C   UNL     1     144.012  96.731 137.818  1.00  0.00     0.010 A 
ATOM     18  C   UNL     1     141.990  96.165 139.663  1.00  0.00     0.001 A 
ATOM     19  C   UNL     1     144.336  96.424 139.141  1.00  0.00     0.001 A 
ATOM     20  C   UNL     1     143.327  96.147 140.063  1.00  0.00     0.000 A 
ENDBRANCH   7  15
TORSDOF 1
ENDMDL
MODEL 4
REMARK VINA RESULT:    -6.974      3.254      5.880
REMARK INTER + INTRA:          -7.069
REMARK INTER:                  -7.061
REMARK INTRA:                  -0.008
REMARK UNBOUND:                 0.313
REMARK SMILES CN1C(=O)CN=C(c2ccccc2)c2cc(Cl)ccc21
REMARK SMILES IDX 1 1 2 2 3 3 4 4 5 5 6 6 7 7 14 8 15 9 16 10 17 11 18 12
REMARK SMILES IDX 19 13 20 14 8 15 9 16 13 17 10 18 12 19 11 20
REMARK H PARENT
ROOT
ATOM      1  C   UNL     1     141.151  95.551 141.151  1.00  0.00     0.153 C 
ATOM      2  N   UNL     1     142.159  96.142 140.281  1.00  0.00    -0.313 N 
ATOM      3  C   UNL     1     143.470  96.185 140.772  1.00  0.00     0.248 C 
ATOM      4  O   UNL     1     143.786  95.688 141.857  1.00  0.00    -0.272 OA
ATOM      5  C   UNL     1     144.492  96.958 139.951  1.00  0.00     0.243 C 
ATOM      6  N   UNL     1     144.813  96.196 138.749  1.00  0.00    -0.274 NA
ATOM      7  C   UNL     1     143.908  96.100 137.834  1.00  0.00     0.075 C 
ATOM      8  C   UNL     1     142.579  96.778 137.897  1.00  0.00     0.026 A 
ATOM      9  C   UNL     1     142.147  97.438 136.731  1.00  0.00     0.033 A 
ATOM     10  C   UNL     1     140.874  97.991 136.672  1.00  0.00     0.041 A 
ATOM     11  Cl  UNL     1     140.347  98.781 135.238  1.00  0.00    -0.084 Cl
ATOM     12  C   UNL     1     140.022  97.898 137.763  1.00  0.00     0.023 A 
ATOM     13  C   UNL     1     140.457  97.266 138.933  1.00  0.00     0.028 A 
ATOM     14  C   UNL     1     141.751  96.719 139.037  1.00  0.00     0.053 A 
ENDROOT
BRANCH   7  15
ATOM     15  C   UNL     1     144.232  95.257 136.637  1.00  0.00     0.000 A 
ATOM     16  C   UNL     1     145.562  94.886 136.407  1.00  0.00     0.010 A 
ATOM     17  C   UNL     1     143.227  94.812 135.769  1.00  0.00     0.010 A 
ATOM     18  C   UNL     1     145.889  94.102 135.301  1.00  0.00     0.001 A 
ATOM     19  C   UNL     1     143.559  94.028 134.663  1.00  0.00     0.001 A 
ATOM     20  C   UNL     1     144.888  93.678 134.426  1.00  0.00     0.000 A 
ENDBRANCH   7  15
TORSDOF 1
ENDMDL
MODEL 5
REMARK VINA RESULT:    -6.964      4.661      7.862
REMARK INTER + INTRA:          -7.058
REMARK INTER:                  -6.580
REMARK INTRA:                  -0.478
REMARK UNBOUND:                 0.313
REMARK SMILES CN1C(=O)CN=C(c2ccccc2)c2cc(Cl)ccc21
REMARK SMILES IDX 1 1 2 2 3 3 4 4 5 5 6 6 7 7 14 8 15 9 16 10 17 11 18 12
REMARK SMILES IDX 19 13 20 14 8 15 9 16 13 17 10 18 12 19 11 20
REMARK H PARENT
ROOT
ATOM      1  C   UNL     1     144.553  95.138 135.530  1.00  0.00     0.153 C 
ATOM      2  N   UNL     1     144.014  96.454 135.212  1.00  0.00    -0.313 N 
ATOM      3  C   UNL     1     144.727  97.220 134.281  1.00  0.00     0.248 C 
ATOM      4  O   UNL     1     145.725  96.789 133.697  1.00  0.00    -0.272 OA
ATOM      5  C   UNL     1     144.275  98.659 134.078  1.00  0.00     0.243 C 
ATOM      6  N   UNL     1     143.019  98.664 133.337  1.00  0.00    -0.274 NA
ATOM      7  C   UNL     1     141.959  98.245 133.941  1.00  0.00     0.075 C 
ATOM      8  C   UNL     1     141.923  97.820 135.372  1.00  0.00     0.026 A 
ATOM      9  C   UNL     1     140.860  98.310 136.154  1.00  0.00     0.033 A 
ATOM     10  C   UNL     1     140.691  97.869 137.461  1.00  0.00     0.041 A 
ATOM     11  Cl  UNL     1     139.380  98.459 138.403  1.00  0.00    -0.084 Cl
ATOM     12  C   UNL     1     141.573  96.944 138.003  1.00  0.00     0.023 A 
ATOM     13  C   UNL     1     142.646  96.476 137.238  1.00  0.00     0.028 A 
ATOM     14  C   UNL     1     142.863  96.923 135.920  1.00  0.00     0.053 A 
ENDROOT
BRANCH   7  15
ATOM     15  C   UNL     1     140.691  98.194 133.143  1.00  0.00     0.000 A 
ATOM     16  C   UNL     1     140.099  99.393 132.730  1.00  0.00     0.010 A 
ATOM     17  C   UNL     1     140.110  96.973 132.779  1.00  0.00     0.010 A 
ATOM     18  C   UNL     1     138.919  99.373 131.985  1.00  0.00     0.001 A 
ATOM     19  C   UNL     1     138.929  96.957 132.034  1.00  0.00     0.001 A 
ATOM     20  C   UNL     1     138.333  98.155 131.642  1.00  0.00     0.000 A 
ENDBRANCH   7  15
TORSDOF 1
ENDMDL
MODEL 6
REMARK VINA RESULT:    -6.821      5.269      7.920
REMARK INTER + INTRA:          -6.908
REMARK INTER:                  -6.459
REMARK INTRA:                  -0.448
REMARK UNBOUND:                 0.313
REMARK SMILES CN1C(=O)CN=C(c2ccccc2)c2cc(Cl)ccc21
REMARK SMILES IDX 1 1 2 2 3 3 4 4 5 5 6 6 7 7 14 8 15 9 16 10 17 11 18 12
REMARK SMILES IDX 19 13 20 14 8 15 9 16 13 17 10 18 12 19 11 20
REMARK H PARENT
ROOT
ATOM      1  C   UNL     1     138.873  96.852 131.596  1.00  0.00     0.153 C 
ATOM      2  N   UNL     1     139.876  97.548 132.392  1.00  0.00    -0.313 N 
ATOM      3  C   UNL     1     139.445  98.671 133.109  1.00  0.00     0.248 C 
ATOM      4  O   UNL     1     138.263  99.027 133.132  1.00  0.00    -0.272 OA
ATOM      5  C   UNL     1     140.516  99.507 133.796  1.00  0.00     0.243 C 
ATOM      6  N   UNL     1     141.016  98.778 134.957  1.00  0.00    -0.274 NA
ATOM      7  C   UNL     1     141.738  97.729 134.747  1.00  0.00     0.075 C 
ATOM      8  C   UNL     1     142.151  97.254 133.393  1.00  0.00     0.026 A 
ATOM      9  C   UNL     1     143.501  96.885 133.233  1.00  0.00     0.033 A 
ATOM     10  C   UNL     1     143.935  96.323 132.039  1.00  0.00     0.041 A 
ATOM     11  Cl  UNL     1     145.580  95.859 131.857  1.00  0.00    -0.084 Cl
ATOM     12  C   UNL     1     143.041  96.125 130.995  1.00  0.00     0.023 A 
ATOM     13  C   UNL     1     141.706  96.516 131.141  1.00  0.00     0.028 A 
ATOM     14  C   UNL     1     141.238  97.113 132.328  1.00  0.00     0.053 A 
ENDROOT
BRANCH   7  15
ATOM     15  C   UNL     1     142.187  96.956 135.950  1.00  0.00     0.000 A 
ATOM     16  C   UNL     1     142.892  97.620 136.960  1.00  0.00     0.010 A 
ATOM     17  C   UNL     1     141.887  95.595 136.093  1.00  0.00     0.010 A 
ATOM     18  C   UNL     1     143.321  96.923 138.090  1.00  0.00     0.001 A 
ATOM     19  C   UNL     1     142.318  94.901 137.225  1.00  0.00     0.001 A 
ATOM     20  C   UNL     1     143.037  95.563 138.220  1.00  0.00     0.000 A 
ENDBRANCH   7  15
TORSDOF 1
ENDMDL
MODEL 7
REMARK VINA RESULT:    -6.739      4.759      7.191
REMARK INTER + INTRA:          -6.820
REMARK INTER:                  -6.389
REMARK INTRA:                  -0.431
REMARK UNBOUND:                 0.313
REMARK SMILES CN1C(=O)CN=C(c2ccccc2)c2cc(Cl)ccc21
REMARK SMILES IDX 1 1 2 2 3 3 4 4 5 5 6 6 7 7 14 8 15 9 16 10 17 11 18 12
REMARK SMILES IDX 19 13 20 14 8 15 9 16 13 17 10 18 12 19 11 20
REMARK H PARENT
ROOT
ATOM      1  C   UNL     1     138.533  98.580 132.862  1.00  0.00     0.153 C 
ATOM      2  N   UNL     1     139.949  98.324 133.092  1.00  0.00    -0.313 N 
ATOM      3  C   UNL     1     140.792  99.441 133.151  1.00  0.00     0.248 C 
ATOM      4  O   UNL     1     140.363 100.596 133.084  1.00  0.00    -0.272 OA
ATOM      5  C   UNL     1     142.289  99.176 133.209  1.00  0.00     0.243 C 
ATOM      6  N   UNL     1     142.632  98.667 134.533  1.00  0.00    -0.274 NA
ATOM      7  C   UNL     1     142.244  97.476 134.841  1.00  0.00     0.075 C 
ATOM      8  C   UNL     1     141.527  96.560 133.905  1.00  0.00     0.026 A 
ATOM      9  C   UNL     1     141.980  95.227 133.848  1.00  0.00     0.033 A 
ATOM     10  C   UNL     1     141.293  94.287 133.091  1.00  0.00     0.041 A 
ATOM     11  Cl  UNL     1     141.841  92.659 133.041  1.00  0.00    -0.084 Cl
ATOM     12  C   UNL     1     140.157  94.657 132.383  1.00  0.00     0.023 A 
ATOM     13  C   UNL     1     139.721  95.985 132.415  1.00  0.00     0.028 A 
ATOM     14  C   UNL     1     140.410  96.970 133.150  1.00  0.00     0.053 A 
ENDROOT
BRANCH   7  15
ATOM     15  C   UNL     1     142.547  96.995 136.228  1.00  0.00     0.000 A 
ATOM     16  C   UNL     1     143.849  96.584 136.536  1.00  0.00     0.010 A 
ATOM     17  C   UNL     1     141.562  96.981 137.224  1.00  0.00     0.010 A 
ATOM     18  C   UNL     1     144.157  96.133 137.820  1.00  0.00     0.001 A 
ATOM     19  C   UNL     1     141.874  96.528 138.507  1.00  0.00     0.001 A 
ATOM     20  C   UNL     1     143.168  96.101 138.803  1.00  0.00     0.000 A 
ENDBRANCH   7  15
TORSDOF 1
ENDMDL
MODEL 8
REMARK VINA RESULT:    -6.578      4.545      6.588
REMARK INTER + INTRA:          -6.650
REMARK INTER:                  -6.170
REMARK INTRA:                  -0.480
REMARK UNBOUND:                 0.313
REMARK SMILES CN1C(=O)CN=C(c2ccccc2)c2cc(Cl)ccc21
REMARK SMILES IDX 1 1 2 2 3 3 4 4 5 5 6 6 7 7 14 8 15 9 16 10 17 11 18 12
REMARK SMILES IDX 19 13 20 14 8 15 9 16 13 17 10 18 12 19 11 20
REMARK H PARENT
ROOT
ATOM      1  C   UNL     1     140.076  99.023 135.473  1.00  0.00     0.153 C 
ATOM      2  N   UNL     1     140.277  97.582 135.386  1.00  0.00    -0.313 N 
ATOM      3  C   UNL     1     139.658  96.922 134.317  1.00  0.00     0.248 C 
ATOM      4  O   UNL     1     139.028  97.525 133.444  1.00  0.00    -0.272 OA
ATOM      5  C   UNL     1     139.712  95.401 134.319  1.00  0.00     0.243 C 
ATOM      6  N   UNL     1     141.067  94.972 133.987  1.00  0.00    -0.274 NA
ATOM      7  C   UNL     1     141.994  95.169 134.863  1.00  0.00     0.075 C 
ATOM      8  C   UNL     1     141.756  95.743 136.220  1.00  0.00     0.026 A 
ATOM      9  C   UNL     1     142.375  95.091 137.304  1.00  0.00     0.033 A 
ATOM     10  C   UNL     1     142.298  95.631 138.581  1.00  0.00     0.041 A 
ATOM     11  Cl  UNL     1     143.071  94.838 139.897  1.00  0.00    -0.084 Cl
ATOM     12  C   UNL     1     141.608  96.816 138.797  1.00  0.00     0.023 A 
ATOM     13  C   UNL     1     140.969  97.452 137.728  1.00  0.00     0.028 A 
ATOM     14  C   UNL     1     141.003  96.918 136.424  1.00  0.00     0.053 A 
ENDROOT
BRANCH   7  15
ATOM     15  C   UNL     1     143.391  94.783 134.478  1.00  0.00     0.000 A 
ATOM     16  C   UNL     1     143.678  93.438 134.221  1.00  0.00     0.010 A 
ATOM     17  C   UNL     1     144.399  95.746 134.342  1.00  0.00     0.010 A 
ATOM     18  C   UNL     1     144.970  93.053 133.861  1.00  0.00     0.001 A 
ATOM     19  C   UNL     1     145.691  95.357 133.982  1.00  0.00     0.001 A 
ATOM     20  C   UNL     1     145.977  94.012 133.746  1.00  0.00     0.000 A 
ENDBRANCH   7  15
TORSDOF 1
ENDMDL
MODEL 9
REMARK VINA RESULT:    -6.499      5.565      7.830
REMARK INTER + INTRA:          -6.566
REMARK INTER:                  -6.091
REMARK INTRA:                  -0.475
REMARK UNBOUND:                 0.313
REMARK SMILES CN1C(=O)CN=C(c2ccccc2)c2cc(Cl)ccc21
REMARK SMILES IDX 1 1 2 2 3 3 4 4 5 5 6 6 7 7 14 8 15 9 16 10 17 11 18 12
REMARK SMILES IDX 19 13 20 14 8 15 9 16 13 17 10 18 12 19 11 20
REMARK H PARENT
ROOT
ATOM      1  C   UNL     1     139.424 100.162 134.603  1.00  0.00     0.153 C 
ATOM      2  N   UNL     1     139.637  98.750 134.311  1.00  0.00    -0.313 N 
ATOM      3  C   UNL     1     138.956  98.224 133.206  1.00  0.00     0.248 C 
ATOM      4  O   UNL     1     138.262  98.924 132.463  1.00  0.00    -0.272 OA
ATOM      5  C   UNL     1     139.030  96.718 133.000  1.00  0.00     0.243 C 
ATOM      6  N   UNL     1     140.365  96.366 132.528  1.00  0.00    -0.274 NA
ATOM      7  C   UNL     1     141.345  96.465 133.361  1.00  0.00     0.075 C 
ATOM      8  C   UNL     1     141.191  96.849 134.796  1.00  0.00     0.026 A 
ATOM      9  C   UNL     1     141.888  96.072 135.741  1.00  0.00     0.033 A 
ATOM     10  C   UNL     1     141.889  96.436 137.081  1.00  0.00     0.041 A 
ATOM     11  Cl  UNL     1     142.757  95.493 138.226  1.00  0.00    -0.084 Cl
ATOM     12  C   UNL     1     141.200  97.567 137.497  1.00  0.00     0.023 A 
ATOM     13  C   UNL     1     140.483  98.326 136.565  1.00  0.00     0.028 A 
ATOM     14  C   UNL     1     140.438  97.970 135.203  1.00  0.00     0.053 A 
ENDROOT
BRANCH   7  15
ATOM     15  C   UNL     1     142.718  96.163 132.840  1.00  0.00     0.000 A 
ATOM     16  C   UNL     1     143.639  97.209 132.706  1.00  0.00     0.010 A 
ATOM     17  C   UNL     1     143.102  94.856 132.517  1.00  0.00     0.010 A 
ATOM     18  C   UNL     1     144.923  96.955 132.223  1.00  0.00     0.001 A 
ATOM     19  C   UNL     1     144.388  94.606 132.034  1.00  0.00     0.001 A 
ATOM     20  C   UNL     1     145.295  95.654 131.883  1.00  0.00     0.000 A 
ENDBRANCH   7  15
TORSDOF 1
ENDMDL
