MODEL 1
REMARK VINA RESULT:   -10.359      0.000      0.000
REMARK INTER + INTRA:         -12.715
REMARK INTER:                 -12.176
REMARK INTRA:                  -0.539
REMARK UNBOUND:                -0.539
REMARK SMILES Cc1ccc(-c2nc3ccc(C)cn3c2CC(=O)N(C)C)cc1
REMARK SMILES IDX 6 1 7 2 8 3 9 4 10 5 11 6 12 7 13 8 14 9 15 10 5 11 2 12
REMARK SMILES IDX 3 13 23 14 4 15 22 16 1 17 16 18 17 19 18 20 19 21 20 22
REMARK SMILES IDX 21 23
REMARK H PARENT
ROOT
ATOM      1  C   UNL     1     119.280 158.152 107.541  1.00  0.00     0.093 A 
ATOM      2  N   UNL     1     119.887 158.518 106.365  1.00  0.00    -0.228 NA
ATOM      3  C   UNL     1     120.818 159.378 106.705  1.00  0.00     0.137 A 
ATOM      4  C   UNL     1     121.739 160.113 105.906  1.00  0.00     0.048 C 
ATOM      5  C   UNL     1     122.590 160.979 106.487  1.00  0.00     0.009 C 
ATOM      6  C   UNL     1     122.600 161.189 107.932  1.00  0.00    -0.034 C 
ATOM      7  C   UNL     1     123.574 162.177 108.492  1.00  0.00     0.046 C 
ATOM      8  C   UNL     1     121.736 160.483 108.687  1.00  0.00     0.096 C 
ATOM      9  N   UNL     1     120.860 159.576 108.083  1.00  0.00    -0.303 N 
ATOM     10  C   UNL     1     119.906 158.732 108.636  1.00  0.00     0.060 A 
ENDROOT
BRANCH   1  11
ATOM     11  C   UNL     1     118.164 157.226 107.558  1.00  0.00     0.002 A 
ATOM     12  C   UNL     1     116.017 155.401 107.546  1.00  0.00    -0.051 A 
ATOM     13  C   UNL     1     117.136 155.184 106.735  1.00  0.00     0.004 A 
ATOM     14  C   UNL     1     115.980 156.536 108.366  1.00  0.00     0.004 A 
ATOM     15  C   UNL     1     118.195 156.097 106.733  1.00  0.00     0.011 A 
ATOM     16  C   UNL     1     117.040 157.447 108.363  1.00  0.00     0.011 A 
ATOM     17  C   UNL     1     114.892 154.409 107.571  1.00  0.00     0.044 C 
ENDBRANCH   1  11
BRANCH  10  18
ATOM     18  C   UNL     1     119.696 158.572 110.110  1.00  0.00     0.157 C 
BRANCH  18  19
ATOM     19  C   UNL     1     118.689 159.587 110.650  1.00  0.00     0.228 C 
ATOM     20  O   UNL     1     118.799 160.772 110.320  1.00  0.00    -0.274 OA
ATOM     21  N   UNL     1     117.678 159.155 111.498  1.00  0.00    -0.348 N 
ATOM     22  C   UNL     1     117.457 157.776 111.903  1.00  0.00     0.146 C 
ATOM     23  C   UNL     1     116.815 160.143 112.126  1.00  0.00     0.146 C 
ENDBRANCH  18  19
ENDBRANCH  10  18
TORSDOF 3
ENDMDL
MODEL 2
REMARK VINA RESULT:    -9.288      2.602      4.885
REMARK INTER + INTRA:         -11.457
REMARK INTER:                 -11.142
REMARK INTRA:                  -0.315
REMARK UNBOUND:                -0.539
REMARK SMILES Cc1ccc(-c2nc3ccc(C)cn3c2CC(=O)N(C)C)cc1
REMARK SMILES IDX 6 1 7 2 8 3 9 4 10 5 11 6 12 7 13 8 14 9 15 10 5 11 2 12
REMARK SMILES IDX 3 13 23 14 4 15 22 16 1 17 16 18 17 19 18 20 19 21 20 22
REMARK SMILES IDX 21 23
REMARK H PARENT
ROOT
ATOM      1  C   UNL     1     117.425 156.155 110.532  1.00  0.00     0.093 A 
ATOM      2  N   UNL     1     117.008 155.377 109.480  1.00  0.00    -0.228 NA
ATOM      3  C   UNL     1     117.629 155.852 108.426  1.00  0.00     0.137 A 
ATOM      4  C   UNL     1     117.563 155.466 107.058  1.00  0.00     0.048 C 
ATOM      5  C   UNL     1     118.278 156.138 106.136  1.00  0.00     0.009 C 
ATOM      6  C   UNL     1     119.131 157.265 106.500  1.00  0.00    -0.034 C 
ATOM      7  C   UNL     1     119.882 157.959 105.409  1.00  0.00     0.046 C 
ATOM      8  C   UNL     1     119.201 157.620 107.798  1.00  0.00     0.096 C 
ATOM      9  N   UNL     1     118.467 156.915 108.756  1.00  0.00    -0.303 N 
ATOM     10  C   UNL     1     118.387 157.073 110.134  1.00  0.00     0.060 A 
ENDROOT
BRANCH   1  11
ATOM     11  C   UNL     1     116.916 155.946 111.875  1.00  0.00     0.002 A 
ATOM     12  C   UNL     1     115.979 155.525 114.498  1.00  0.00    -0.051 A 
ATOM     13  C   UNL     1     117.351 155.518 114.226  1.00  0.00     0.004 A 
ATOM     14  C   UNL     1     115.078 155.746 113.449  1.00  0.00     0.004 A 
ATOM     15  C   UNL     1     117.814 155.715 112.922  1.00  0.00     0.011 A 
ATOM     16  C   UNL     1     115.543 155.944 112.145  1.00  0.00     0.011 A 
ATOM     17  C   UNL     1     115.482 155.341 115.901  1.00  0.00     0.044 C 
ENDBRANCH   1  11
BRANCH  10  18
ATOM     18  C   UNL     1     119.213 158.056 110.904  1.00  0.00     0.157 C 
BRANCH  18  19
ATOM     19  C   UNL     1     118.756 159.493 110.657  1.00  0.00     0.228 C 
ATOM     20  O   UNL     1     119.314 160.155 109.777  1.00  0.00    -0.274 OA
ATOM     21  N   UNL     1     117.728 160.021 111.428  1.00  0.00    -0.348 N 
ATOM     22  C   UNL     1     116.997 159.298 112.456  1.00  0.00     0.146 C 
ATOM     23  C   UNL     1     117.399 161.431 111.292  1.00  0.00     0.146 C 
ENDBRANCH  18  19
ENDBRANCH  10  18
TORSDOF 3
ENDMDL
MODEL 3
REMARK VINA RESULT:    -9.153      1.825      5.088
REMARK INTER + INTRA:         -11.298
REMARK INTER:                 -10.447
REMARK INTRA:                  -0.851
REMARK UNBOUND:                -0.539
REMARK SMILES Cc1ccc(-c2nc3ccc(C)cn3c2CC(=O)N(C)C)cc1
REMARK SMILES IDX 6 1 7 2 8 3 9 4 10 5 11 6 12 7 13 8 14 9 15 10 5 11 2 12
REMARK SMILES IDX 3 13 23 14 4 15 22 16 1 17 16 18 17 19 18 20 19 21 20 22
REMARK SMILES IDX 21 23
REMARK H PARENT
ROOT
ATOM      1  C   UNL     1     117.987 157.388 109.955  1.00  0.00     0.093 A 
ATOM      2  N   UNL     1     117.223 156.625 109.106  1.00  0.00    -0.228 NA
ATOM      3  C   UNL     1     117.836 156.673 107.946  1.00  0.00     0.137 A 
ATOM      4  C   UNL     1     117.490 156.100 106.690  1.00  0.00     0.048 C 
ATOM      5  C   UNL     1     118.269 156.321 105.615  1.00  0.00     0.009 C 
ATOM      6  C   UNL     1     119.474 157.141 105.697  1.00  0.00    -0.034 C 
ATOM      7  C   UNL     1     120.274 157.342 104.450  1.00  0.00     0.046 C 
ATOM      8  C   UNL     1     119.804 157.673 106.890  1.00  0.00     0.096 C 
ATOM      9  N   UNL     1     119.001 157.432 108.009  1.00  0.00    -0.303 N 
ATOM     10  C   UNL     1     119.138 157.845 109.328  1.00  0.00     0.060 A 
ENDROOT
BRANCH   1  11
ATOM     11  C   UNL     1     117.598 157.599 111.337  1.00  0.00     0.002 A 
ATOM     12  C   UNL     1     116.854 157.953 114.031  1.00  0.00    -0.051 A 
ATOM     13  C   UNL     1     117.454 156.760 113.612  1.00  0.00     0.004 A 
ATOM     14  C   UNL     1     116.631 158.969 113.093  1.00  0.00     0.004 A 
ATOM     15  C   UNL     1     117.811 156.582 112.273  1.00  0.00     0.011 A 
ATOM     16  C   UNL     1     116.991 158.788 111.754  1.00  0.00     0.011 A 
ATOM     17  C   UNL     1     116.495 158.158 115.473  1.00  0.00     0.044 C 
ENDBRANCH   1  11
BRANCH  10  18
ATOM     18  C   UNL     1     120.318 158.612 109.838  1.00  0.00     0.157 C 
BRANCH  18  19
ATOM     19  C   UNL     1     120.173 160.111 109.580  1.00  0.00     0.228 C 
ATOM     20  O   UNL     1     119.221 160.715 110.086  1.00  0.00    -0.274 OA
ATOM     21  N   UNL     1     121.109 160.758 108.784  1.00  0.00    -0.348 N 
ATOM     22  C   UNL     1     122.275 160.128 108.184  1.00  0.00     0.146 C 
ATOM     23  C   UNL     1     120.884 162.148 108.420  1.00  0.00     0.146 C 
ENDBRANCH  18  19
ENDBRANCH  10  18
TORSDOF 3
ENDMDL
MODEL 4
REMARK VINA RESULT:    -8.553      3.086      6.473
REMARK INTER + INTRA:         -10.592
REMARK INTER:                  -9.969
REMARK INTRA:                  -0.623
REMARK UNBOUND:                -0.539
REMARK SMILES Cc1ccc(-c2nc3ccc(C)cn3c2CC(=O)N(C)C)cc1
REMARK SMILES IDX 6 1 7 2 8 3 9 4 10 5 11 6 12 7 13 8 14 9 15 10 5 11 2 12
REMARK SMILES IDX 3 13 23 14 4 15 22 16 1 17 16 18 17 19 18 20 19 21 20 22
REMARK SMILES IDX 21 23
REMARK H PARENT
ROOT
ATOM      1  C   UNL     1     117.695 159.043 111.207  1.00  0.00     0.093 A 
ATOM      2  N   UNL     1     117.283 160.351 111.280  1.00  0.00    -0.228 NA
ATOM      3  C   UNL     1     116.590 160.438 112.391  1.00  0.00     0.137 A 
ATOM      4  C   UNL     1     115.895 161.538 112.968  1.00  0.00     0.048 C 
ATOM      5  C   UNL     1     115.213 161.374 114.116  1.00  0.00     0.009 C 
ATOM      6  C   UNL     1     115.163 160.084 114.799  1.00  0.00    -0.034 C 
ATOM      7  C   UNL     1     114.373 159.990 116.066  1.00  0.00     0.046 C 
ATOM      8  C   UNL     1     115.831 159.048 114.257  1.00  0.00     0.096 C 
ATOM      9  N   UNL     1     116.548 159.223 113.070  1.00  0.00    -0.303 N 
ATOM     10  C   UNL     1     117.320 158.330 112.337  1.00  0.00     0.060 A 
ENDROOT
BRANCH   1  11
ATOM     11  C   UNL     1     118.468 158.557 110.080  1.00  0.00     0.002 A 
ATOM     12  C   UNL     1     120.003 157.658 107.895  1.00  0.00    -0.051 A 
ATOM     13  C   UNL     1     120.436 158.741 108.668  1.00  0.00     0.004 A 
ATOM     14  C   UNL     1     118.797 157.027 108.224  1.00  0.00     0.004 A 
ATOM     15  C   UNL     1     119.667 159.193 109.744  1.00  0.00     0.011 A 
ATOM     16  C   UNL     1     118.030 157.480 109.301  1.00  0.00     0.011 A 
ATOM     17  C   UNL     1     120.840 157.154 106.757  1.00  0.00     0.044 C 
ENDBRANCH   1  11
BRANCH  10  18
ATOM     18  C   UNL     1     117.610 156.930 112.779  1.00  0.00     0.157 C 
BRANCH  18  19
ATOM     19  C   UNL     1     116.340 156.081 112.835  1.00  0.00     0.228 C 
ATOM     20  O   UNL     1     115.666 155.946 111.809  1.00  0.00    -0.274 OA
ATOM     21  N   UNL     1     115.974 155.484 114.034  1.00  0.00    -0.348 N 
ATOM     22  C   UNL     1     116.731 155.563 115.274  1.00  0.00     0.146 C 
ATOM     23  C   UNL     1     114.692 154.803 114.120  1.00  0.00     0.146 C 
ENDBRANCH  18  19
ENDBRANCH  10  18
TORSDOF 3
ENDMDL
MODEL 5
REMARK VINA RESULT:    -8.260      2.570      7.321
REMARK INTER + INTRA:         -10.248
REMARK INTER:                  -9.991
REMARK INTRA:                  -0.257
REMARK UNBOUND:                -0.539
REMARK SMILES Cc1ccc(-c2nc3ccc(C)cn3c2CC(=O)N(C)C)cc1
REMARK SMILES IDX 6 1 7 2 8 3 9 4 10 5 11 6 12 7 13 8 14 9 15 10 5 11 2 12
REMARK SMILES IDX 3 13 23 14 4 15 22 16 1 17 16 18 17 19 18 20 19 21 20 22
REMARK SMILES IDX 21 23
REMARK H PARENT
ROOT
ATOM      1  C   UNL     1     117.897 158.283 111.421  1.00  0.00     0.093 A 
ATOM      2  N   UNL     1     117.411 158.947 112.521  1.00  0.00    -0.228 NA
ATOM      3  C   UNL     1     116.577 158.111 113.094  1.00  0.00     0.137 A 
ATOM      4  C   UNL     1     115.757 158.263 114.247  1.00  0.00     0.048 C 
ATOM      5  C   UNL     1     114.942 157.262 114.628  1.00  0.00     0.009 C 
ATOM      6  C   UNL     1     114.872 156.007 113.886  1.00  0.00    -0.034 C 
ATOM      7  C   UNL     1     113.932 154.952 114.375  1.00  0.00     0.046 C 
ATOM      8  C   UNL     1     115.658 155.862 112.801  1.00  0.00     0.096 C 
ATOM      9  N   UNL     1     116.512 156.898 112.414  1.00  0.00    -0.303 N 
ATOM     10  C   UNL     1     117.418 156.982 111.363  1.00  0.00     0.060 A 
ENDROOT
BRANCH   1  11
ATOM     11  C   UNL     1     118.833 158.915 110.511  1.00  0.00     0.002 A 
ATOM     12  C   UNL     1     120.631 160.192 108.758  1.00  0.00    -0.051 A 
ATOM     13  C   UNL     1     119.890 160.938 109.681  1.00  0.00     0.004 A 
ATOM     14  C   UNL     1     120.468 158.802 108.720  1.00  0.00     0.004 A 
ATOM     15  C   UNL     1     118.989 160.305 110.541  1.00  0.00     0.011 A 
ATOM     16  C   UNL     1     119.568 158.169 109.582  1.00  0.00     0.011 A 
ATOM     17  C   UNL     1     121.618 160.867 107.852  1.00  0.00     0.044 C 
ENDBRANCH   1  11
BRANCH  10  18
ATOM     18  C   UNL     1     117.722 155.844 110.439  1.00  0.00     0.157 C 
BRANCH  18  19
ATOM     19  C   UNL     1     116.810 155.853 109.212  1.00  0.00     0.228 C 
ATOM     20  O   UNL     1     115.601 156.052 109.368  1.00  0.00    -0.274 OA
ATOM     21  N   UNL     1     117.359 155.636 107.956  1.00  0.00    -0.348 N 
ATOM     22  C   UNL     1     118.773 155.432 107.685  1.00  0.00     0.146 C 
ATOM     23  C   UNL     1     116.470 155.498 106.813  1.00  0.00     0.146 C 
ENDBRANCH  18  19
ENDBRANCH  10  18
TORSDOF 3
ENDMDL
MODEL 6
REMARK VINA RESULT:    -8.145      2.106      5.523
REMARK INTER + INTRA:         -10.113
REMARK INTER:                  -9.880
REMARK INTRA:                  -0.233
REMARK UNBOUND:                -0.539
REMARK SMILES Cc1ccc(-c2nc3ccc(C)cn3c2CC(=O)N(C)C)cc1
REMARK SMILES IDX 6 1 7 2 8 3 9 4 10 5 11 6 12 7 13 8 14 9 15 10 5 11 2 12
REMARK SMILES IDX 3 13 23 14 4 15 22 16 1 17 16 18 17 19 18 20 19 21 20 22
REMARK SMILES IDX 21 23
REMARK H PARENT
ROOT
ATOM      1  C   UNL     1     118.069 156.921 109.340  1.00  0.00     0.093 A 
ATOM      2  N   UNL     1     116.931 156.242 109.702  1.00  0.00    -0.228 NA
ATOM      3  C   UNL     1     116.806 156.434 110.994  1.00  0.00     0.137 A 
ATOM      4  C   UNL     1     115.836 155.948 111.915  1.00  0.00     0.048 C 
ATOM      5  C   UNL     1     115.937 156.255 113.221  1.00  0.00     0.009 C 
ATOM      6  C   UNL     1     117.025 157.085 113.731  1.00  0.00    -0.034 C 
ATOM      7  C   UNL     1     117.064 157.368 115.199  1.00  0.00     0.046 C 
ATOM      8  C   UNL     1     117.935 157.554 112.855  1.00  0.00     0.096 C 
ATOM      9  N   UNL     1     117.822 157.243 111.497  1.00  0.00    -0.303 N 
ATOM     10  C   UNL     1     118.608 157.615 110.414  1.00  0.00     0.060 A 
ENDROOT
BRANCH   1  11
ATOM     11  C   UNL     1     118.553 156.908 107.972  1.00  0.00     0.002 A 
ATOM     12  C   UNL     1     119.448 156.849 105.302  1.00  0.00    -0.051 A 
ATOM     13  C   UNL     1     118.196 156.327 105.641  1.00  0.00     0.004 A 
ATOM     14  C   UNL     1     120.249 157.403 106.307  1.00  0.00     0.004 A 
ATOM     15  C   UNL     1     117.758 156.346 106.968  1.00  0.00     0.011 A 
ATOM     16  C   UNL     1     119.810 157.422 107.634  1.00  0.00     0.011 A 
ATOM     17  C   UNL     1     119.909 156.855 103.874  1.00  0.00     0.044 C 
ENDBRANCH   1  11
BRANCH  10  18
ATOM     18  C   UNL     1     119.761 158.565 110.514  1.00  0.00     0.157 C 
BRANCH  18  19
ATOM     19  C   UNL     1     119.297 160.021 110.488  1.00  0.00     0.228 C 
ATOM     20  O   UNL     1     118.299 160.342 111.143  1.00  0.00    -0.274 OA
ATOM     21  N   UNL     1     120.003 160.946 109.732  1.00  0.00    -0.348 N 
ATOM     22  C   UNL     1     121.205 160.658 108.966  1.00  0.00     0.146 C 
ATOM     23  C   UNL     1     119.473 162.293 109.592  1.00  0.00     0.146 C 
ENDBRANCH  18  19
ENDBRANCH  10  18
TORSDOF 3
ENDMDL
MODEL 7
REMARK VINA RESULT:    -8.031      3.050      6.515
REMARK INTER + INTRA:          -9.979
REMARK INTER:                  -9.681
REMARK INTRA:                  -0.298
REMARK UNBOUND:                -0.539
REMARK SMILES Cc1ccc(-c2nc3ccc(C)cn3c2CC(=O)N(C)C)cc1
REMARK SMILES IDX 6 1 7 2 8 3 9 4 10 5 11 6 12 7 13 8 14 9 15 10 5 11 2 12
REMARK SMILES IDX 3 13 23 14 4 15 22 16 1 17 16 18 17 19 18 20 19 21 20 22
REMARK SMILES IDX 21 23
REMARK H PARENT
ROOT
ATOM      1  C   UNL     1     117.626 159.134 111.168  1.00  0.00     0.093 A 
ATOM      2  N   UNL     1     117.435 160.466 111.443  1.00  0.00    -0.228 NA
ATOM      3  C   UNL     1     116.612 160.498 112.464  1.00  0.00     0.137 A 
ATOM      4  C   UNL     1     116.037 161.599 113.158  1.00  0.00     0.048 C 
ATOM      5  C   UNL     1     115.175 161.380 114.169  1.00  0.00     0.009 C 
ATOM      6  C   UNL     1     114.808 160.029 114.583  1.00  0.00    -0.034 C 
ATOM      7  C   UNL     1     113.837 159.878 115.710  1.00  0.00     0.046 C 
ATOM      8  C   UNL     1     115.364 158.988 113.931  1.00  0.00     0.096 C 
ATOM      9  N   UNL     1     116.266 159.218 112.889  1.00  0.00    -0.303 N 
ATOM     10  C   UNL     1     116.975 158.328 112.091  1.00  0.00     0.060 A 
ENDROOT
BRANCH   1  11
ATOM     11  C   UNL     1     118.462 158.703 110.063  1.00  0.00     0.002 A 
ATOM     12  C   UNL     1     120.050 157.823 107.910  1.00  0.00    -0.051 A 
ATOM     13  C   UNL     1     118.794 157.253 108.143  1.00  0.00     0.004 A 
ATOM     14  C   UNL     1     120.506 158.837 108.760  1.00  0.00     0.004 A 
ATOM     15  C   UNL     1     118.012 157.683 109.219  1.00  0.00     0.011 A 
ATOM     16  C   UNL     1     119.722 159.266 109.835  1.00  0.00     0.011 A 
ATOM     17  C   UNL     1     120.879 157.382 106.739  1.00  0.00     0.044 C 
ENDBRANCH   1  11
BRANCH  10  18
ATOM     18  C   UNL     1     116.955 156.844 112.287  1.00  0.00     0.157 C 
BRANCH  18  19
ATOM     19  C   UNL     1     117.302 156.458 113.724  1.00  0.00     0.228 C 
ATOM     20  O   UNL     1     118.350 156.883 114.220  1.00  0.00    -0.274 OA
ATOM     21  N   UNL     1     116.435 155.640 114.436  1.00  0.00    -0.348 N 
ATOM     22  C   UNL     1     115.167 155.130 113.939  1.00  0.00     0.146 C 
ATOM     23  C   UNL     1     116.840 155.156 115.746  1.00  0.00     0.146 C 
ENDBRANCH  18  19
ENDBRANCH  10  18
TORSDOF 3
ENDMDL
MODEL 8
REMARK VINA RESULT:    -7.949      3.078      6.746
REMARK INTER + INTRA:          -9.883
REMARK INTER:                  -9.362
REMARK INTRA:                  -0.521
REMARK UNBOUND:                -0.539
REMARK SMILES Cc1ccc(-c2nc3ccc(C)cn3c2CC(=O)N(C)C)cc1
REMARK SMILES IDX 6 1 7 2 8 3 9 4 10 5 11 6 12 7 13 8 14 9 15 10 5 11 2 12
REMARK SMILES IDX 3 13 23 14 4 15 22 16 1 17 16 18 17 19 18 20 19 21 20 22
REMARK SMILES IDX 21 23
REMARK H PARENT
ROOT
ATOM      1  C   UNL     1     116.329 156.165 111.628  1.00  0.00     0.093 A 
ATOM      2  N   UNL     1     115.270 155.530 112.230  1.00  0.00    -0.228 NA
ATOM      3  C   UNL     1     115.329 155.877 113.495  1.00  0.00     0.137 A 
ATOM      4  C   UNL     1     114.512 155.501 114.598  1.00  0.00     0.048 C 
ATOM      5  C   UNL     1     114.794 155.965 115.830  1.00  0.00     0.009 C 
ATOM      6  C   UNL     1     115.925 156.855 116.073  1.00  0.00    -0.034 C 
ATOM      7  C   UNL     1     116.170 157.314 117.475  1.00  0.00     0.046 C 
ATOM      8  C   UNL     1     116.689 157.218 115.024  1.00  0.00     0.096 C 
ATOM      9  N   UNL     1     116.389 156.745 113.744  1.00  0.00    -0.303 N 
ATOM     10  C   UNL     1     117.002 156.986 112.521  1.00  0.00     0.060 A 
ENDROOT
BRANCH   1  11
ATOM     11  C   UNL     1     116.610 155.988 110.216  1.00  0.00     0.002 A 
ATOM     12  C   UNL     1     117.102 155.656 107.462  1.00  0.00    -0.051 A 
ATOM     13  C   UNL     1     115.870 156.147 107.907  1.00  0.00     0.004 A 
ATOM     14  C   UNL     1     118.087 155.335 108.403  1.00  0.00     0.004 A 
ATOM     15  C   UNL     1     115.623 156.300 109.274  1.00  0.00     0.011 A 
ATOM     16  C   UNL     1     117.839 155.489 109.770  1.00  0.00     0.011 A 
ATOM     17  C   UNL     1     117.379 155.517 105.994  1.00  0.00     0.044 C 
ENDBRANCH   1  11
BRANCH  10  18
ATOM     18  C   UNL     1     118.135 157.947 112.339  1.00  0.00     0.157 C 
BRANCH  18  19
ATOM     19  C   UNL     1     117.641 159.387 112.210  1.00  0.00     0.228 C 
ATOM     20  O   UNL     1     116.756 159.786 112.975  1.00  0.00    -0.274 OA
ATOM     21  N   UNL     1     118.193 160.212 111.240  1.00  0.00    -0.348 N 
ATOM     22  C   UNL     1     119.261 159.832 110.327  1.00  0.00     0.146 C 
ATOM     23  C   UNL     1     117.617 161.529 111.023  1.00  0.00     0.146 C 
ENDBRANCH  18  19
ENDBRANCH  10  18
TORSDOF 3
ENDMDL
MODEL 9
REMARK VINA RESULT:    -7.898      4.049      7.209
REMARK INTER + INTRA:          -9.823
REMARK INTER:                  -8.786
REMARK INTRA:                  -1.037
REMARK UNBOUND:                -0.539
REMARK SMILES Cc1ccc(-c2nc3ccc(C)cn3c2CC(=O)N(C)C)cc1
REMARK SMILES IDX 6 1 7 2 8 3 9 4 10 5 11 6 12 7 13 8 14 9 15 10 5 11 2 12
REMARK SMILES IDX 3 13 23 14 4 15 22 16 1 17 16 18 17 19 18 20 19 21 20 22
REMARK SMILES IDX 21 23
REMARK H PARENT
ROOT
ATOM      1  C   UNL     1     116.284 158.348 113.544  1.00  0.00     0.093 A 
ATOM      2  N   UNL     1     116.736 159.566 113.098  1.00  0.00    -0.228 NA
ATOM      3  C   UNL     1     117.450 159.303 112.028  1.00  0.00     0.137 A 
ATOM      4  C   UNL     1     118.187 160.166 111.169  1.00  0.00     0.048 C 
ATOM      5  C   UNL     1     118.884 159.652 110.139  1.00  0.00     0.009 C 
ATOM      6  C   UNL     1     118.908 158.218 109.870  1.00  0.00    -0.034 C 
ATOM      7  C   UNL     1     119.717 157.733 108.709  1.00  0.00     0.046 C 
ATOM      8  C   UNL     1     118.200 157.404 110.678  1.00  0.00     0.096 C 
ATOM      9  N   UNL     1     117.467 157.940 111.741  1.00  0.00    -0.303 N 
ATOM     10  C   UNL     1     116.657 157.323 112.685  1.00  0.00     0.060 A 
ENDROOT
BRANCH   1  11
ATOM     11  C   UNL     1     115.478 158.236 114.745  1.00  0.00     0.002 A 
ATOM     12  C   UNL     1     113.958 158.002 117.105  1.00  0.00    -0.051 A 
ATOM     13  C   UNL     1     115.353 157.918 117.150  1.00  0.00     0.004 A 
ATOM     14  C   UNL     1     113.327 158.207 115.872  1.00  0.00     0.004 A 
ATOM     15  C   UNL     1     116.105 158.022 115.977  1.00  0.00     0.011 A 
ATOM     16  C   UNL     1     114.081 158.312 114.699  1.00  0.00     0.011 A 
ATOM     17  C   UNL     1     113.150 157.919 118.367  1.00  0.00     0.044 C 
ENDBRANCH   1  11
BRANCH  10  18
ATOM     18  C   UNL     1     116.334 155.862 112.672  1.00  0.00     0.157 C 
BRANCH  18  19
ATOM     19  C   UNL     1     116.996 155.125 113.836  1.00  0.00     0.228 C 
ATOM     20  O   UNL     1     118.228 155.041 113.867  1.00  0.00    -0.274 OA
ATOM     21  N   UNL     1     116.200 154.568 114.828  1.00  0.00    -0.348 N 
ATOM     22  C   UNL     1     114.749 154.654 114.884  1.00  0.00     0.146 C 
ATOM     23  C   UNL     1     116.824 153.743 115.850  1.00  0.00     0.146 C 
ENDBRANCH  18  19
ENDBRANCH  10  18
TORSDOF 3
ENDMDL
