MODEL 1
REMARK VINA RESULT:    -6.806      0.000      0.000
REMARK INTER + INTRA:          -7.828
REMARK INTER:                  -7.203
REMARK INTRA:                  -0.625
REMARK UNBOUND:                -0.625
REMARK SMILES Cc1nnc2n1-c1ccc(Cl)cc1C(c1ccccc1Cl)=NC2
REMARK SMILES IDX 1 1 2 2 3 3 4 4 5 5 6 6 7 7 8 8 9 9 10 10 11 11 12 12 13 13
REMARK SMILES IDX 14 14 22 15 23 16 15 17 16 18 20 19 17 20 19 21 18 22 21 23
REMARK H PARENT
ROOT
ATOM      1  C   UNL     1     141.761  95.949 137.394  1.00  0.00     0.090 C 
ATOM      2  C   UNL     1     141.207  97.222 136.876  1.00  0.00     0.134 A 
ATOM      3  N   UNL     1     140.596  98.118 137.625  1.00  0.00    -0.135 NA
ATOM      4  N   UNL     1     140.082  99.083 136.807  1.00  0.00    -0.133 NA
ATOM      5  C   UNL     1     140.388  98.769 135.567  1.00  0.00     0.159 A 
ATOM      6  N   UNL     1     141.142  97.616 135.546  1.00  0.00    -0.281 N 
ATOM      7  C   UNL     1     141.749  97.044 134.397  1.00  0.00     0.058 A 
ATOM      8  C   UNL     1     142.999  96.415 134.528  1.00  0.00     0.029 A 
ATOM      9  C   UNL     1     143.651  95.886 133.412  1.00  0.00     0.023 A 
ATOM     10  C   UNL     1     143.066  95.990 132.157  1.00  0.00     0.041 A 
ATOM     11  Cl  UNL     1     143.874  95.347 130.781  1.00  0.00    -0.084 Cl
ATOM     12  C   UNL     1     141.829  96.612 132.005  1.00  0.00     0.033 A 
ATOM     13  C   UNL     1     141.153  97.141 133.120  1.00  0.00     0.026 A 
ATOM     14  C   UNL     1     139.780  97.694 132.886  1.00  0.00     0.076 C 
ATOM     15  N   UNL     1     139.281  98.748 133.431  1.00  0.00    -0.276 NA
ATOM     16  C   UNL     1     140.082  99.546 134.348  1.00  0.00     0.220 C 
ENDROOT
BRANCH  14  17
ATOM     17  C   UNL     1     138.882  96.938 131.975  1.00  0.00     0.019 A 
ATOM     18  C   UNL     1     138.296  95.762 132.460  1.00  0.00     0.012 A 
ATOM     19  C   UNL     1     138.600  97.388 130.680  1.00  0.00     0.050 A 
ATOM     20  C   UNL     1     137.435  95.030 131.644  1.00  0.00     0.001 A 
ATOM     21  C   UNL     1     137.736  96.647 129.869  1.00  0.00     0.021 A 
ATOM     22  C   UNL     1     137.155  95.471 130.350  1.00  0.00     0.002 A 
ATOM     23  Cl  UNL     1     139.329  98.802 130.010  1.00  0.00    -0.084 Cl
ENDBRANCH  14  17
TORSDOF 1
ENDMDL
MODEL 2
REMARK VINA RESULT:    -6.778      2.844      4.649
REMARK INTER + INTRA:          -7.800
REMARK INTER:                  -7.165
REMARK INTRA:                  -0.635
REMARK UNBOUND:                -0.625
REMARK SMILES Cc1nnc2n1-c1ccc(Cl)cc1C(c1ccccc1Cl)=NC2
REMARK SMILES IDX 1 1 2 2 3 3 4 4 5 5 6 6 7 7 8 8 9 9 10 10 11 11 12 12 13 13
REMARK SMILES IDX 14 14 22 15 23 16 15 17 16 18 20 19 17 20 19 21 18 22 21 23
REMARK H PARENT
ROOT
ATOM      1  C   UNL     1     143.497  94.249 135.275  1.00  0.00     0.090 C 
ATOM      2  C   UNL     1     144.023  95.366 134.454  1.00  0.00     0.134 A 
ATOM      3  N   UNL     1     145.260  95.815 134.528  1.00  0.00    -0.135 NA
ATOM      4  N   UNL     1     145.356  96.936 133.754  1.00  0.00    -0.133 NA
ATOM      5  C   UNL     1     144.179  97.157 133.211  1.00  0.00     0.159 A 
ATOM      6  N   UNL     1     143.296  96.166 133.584  1.00  0.00    -0.281 N 
ATOM      7  C   UNL     1     141.971  96.013 133.097  1.00  0.00     0.058 A 
ATOM      8  C   UNL     1     141.459  94.716 132.909  1.00  0.00     0.029 A 
ATOM      9  C   UNL     1     140.180  94.524 132.385  1.00  0.00     0.023 A 
ATOM     10  C   UNL     1     139.405  95.622 132.034  1.00  0.00     0.041 A 
ATOM     11  Cl  UNL     1     137.833  95.384 131.379  1.00  0.00    -0.084 Cl
ATOM     12  C   UNL     1     139.894  96.914 132.209  1.00  0.00     0.033 A 
ATOM     13  C   UNL     1     141.177  97.126 132.746  1.00  0.00     0.026 A 
ATOM     14  C   UNL     1     141.583  98.546 133.004  1.00  0.00     0.076 C 
ATOM     15  N   UNL     1     142.751  99.052 132.811  1.00  0.00    -0.276 NA
ATOM     16  C   UNL     1     143.821  98.230 132.261  1.00  0.00     0.220 C 
ENDROOT
BRANCH  14  17
ATOM     17  C   UNL     1     140.560  99.458 133.579  1.00  0.00     0.019 A 
ATOM     18  C   UNL     1     139.990 100.419 132.734  1.00  0.00     0.012 A 
ATOM     19  C   UNL     1     140.149  99.355 134.913  1.00  0.00     0.050 A 
ATOM     20  C   UNL     1     139.015 101.285 133.228  1.00  0.00     0.001 A 
ATOM     21  C   UNL     1     139.172 100.229 135.399  1.00  0.00     0.021 A 
ATOM     22  C   UNL     1     138.607 101.191 134.559  1.00  0.00     0.002 A 
ATOM     23  Cl  UNL     1     140.849  98.226 136.014  1.00  0.00    -0.084 Cl
ENDBRANCH  14  17
TORSDOF 1
ENDMDL
MODEL 3
REMARK VINA RESULT:    -6.757      2.981      6.056
REMARK INTER + INTRA:          -7.777
REMARK INTER:                  -7.145
REMARK INTRA:                  -0.632
REMARK UNBOUND:                -0.625
REMARK SMILES Cc1nnc2n1-c1ccc(Cl)cc1C(c1ccccc1Cl)=NC2
REMARK SMILES IDX 1 1 2 2 3 3 4 4 5 5 6 6 7 7 8 8 9 9 10 10 11 11 12 12 13 13
REMARK SMILES IDX 14 14 22 15 23 16 15 17 16 18 20 19 17 20 19 21 18 22 21 23
REMARK H PARENT
ROOT
ATOM      1  C   UNL     1     139.206  97.771 133.626  1.00  0.00     0.090 C 
ATOM      2  C   UNL     1     140.464  98.172 132.953  1.00  0.00     0.134 A 
ATOM      3  N   UNL     1     140.525  98.627 131.718  1.00  0.00    -0.135 NA
ATOM      4  N   UNL     1     141.840  98.750 131.371  1.00  0.00    -0.133 NA
ATOM      5  C   UNL     1     142.568  98.374 132.399  1.00  0.00     0.159 A 
ATOM      6  N   UNL     1     141.751  98.033 133.455  1.00  0.00    -0.281 N 
ATOM      7  C   UNL     1     142.186  97.693 134.763  1.00  0.00     0.058 A 
ATOM      8  C   UNL     1     141.408  98.089 135.865  1.00  0.00     0.029 A 
ATOM      9  C   UNL     1     141.829  97.818 137.168  1.00  0.00     0.023 A 
ATOM     10  C   UNL     1     143.033  97.159 137.382  1.00  0.00     0.041 A 
ATOM     11  Cl  UNL     1     143.555  96.834 138.988  1.00  0.00    -0.084 Cl
ATOM     12  C   UNL     1     143.820  96.761 136.304  1.00  0.00     0.033 A 
ATOM     13  C   UNL     1     143.406  97.017 134.984  1.00  0.00     0.026 A 
ATOM     14  C   UNL     1     144.255  96.460 133.883  1.00  0.00     0.076 C 
ATOM     15  N   UNL     1     144.537  97.041 132.769  1.00  0.00    -0.276 NA
ATOM     16  C   UNL     1     144.042  98.384 132.501  1.00  0.00     0.220 C 
ENDROOT
BRANCH  14  17
ATOM     17  C   UNL     1     144.795  95.086 134.061  1.00  0.00     0.019 A 
ATOM     18  C   UNL     1     146.162  94.950 134.335  1.00  0.00     0.012 A 
ATOM     19  C   UNL     1     143.972  93.957 133.987  1.00  0.00     0.050 A 
ATOM     20  C   UNL     1     146.708  93.681 134.524  1.00  0.00     0.001 A 
ATOM     21  C   UNL     1     144.528  92.689 134.177  1.00  0.00     0.021 A 
ATOM     22  C   UNL     1     145.892  92.552 134.445  1.00  0.00     0.002 A 
ATOM     23  Cl  UNL     1     142.292  94.058 133.604  1.00  0.00    -0.084 Cl
ENDBRANCH  14  17
TORSDOF 1
ENDMDL
MODEL 4
REMARK VINA RESULT:    -6.664      2.640      5.372
REMARK INTER + INTRA:          -7.678
REMARK INTER:                  -7.208
REMARK INTRA:                  -0.470
REMARK UNBOUND:                -0.625
REMARK SMILES Cc1nnc2n1-c1ccc(Cl)cc1C(c1ccccc1Cl)=NC2
REMARK SMILES IDX 1 1 2 2 3 3 4 4 5 5 6 6 7 7 8 8 9 9 10 10 11 11 12 12 13 13
REMARK SMILES IDX 14 14 22 15 23 16 15 17 16 18 20 19 17 20 19 21 18 22 21 23
REMARK H PARENT
ROOT
ATOM      1  C   UNL     1     140.807  99.843 131.376  1.00  0.00     0.090 C 
ATOM      2  C   UNL     1     140.083  98.577 131.637  1.00  0.00     0.134 A 
ATOM      3  N   UNL     1     138.802  98.396 131.384  1.00  0.00    -0.135 NA
ATOM      4  N   UNL     1     138.433  97.181 131.885  1.00  0.00    -0.133 NA
ATOM      5  C   UNL     1     139.493  96.630 132.435  1.00  0.00     0.159 A 
ATOM      6  N   UNL     1     140.588  97.451 132.272  1.00  0.00    -0.281 N 
ATOM      7  C   UNL     1     141.923  97.131 132.633  1.00  0.00     0.058 A 
ATOM      8  C   UNL     1     142.977  97.595 131.825  1.00  0.00     0.029 A 
ATOM      9  C   UNL     1     144.300  97.259 132.119  1.00  0.00     0.023 A 
ATOM     10  C   UNL     1     144.581  96.450 133.212  1.00  0.00     0.041 A 
ATOM     11  Cl  UNL     1     146.211  96.029 133.566  1.00  0.00    -0.084 Cl
ATOM     12  C   UNL     1     143.552  95.978 134.022  1.00  0.00     0.033 A 
ATOM     13  C   UNL     1     142.214  96.315 133.748  1.00  0.00     0.026 A 
ATOM     14  C   UNL     1     141.180  95.857 134.730  1.00  0.00     0.076 C 
ATOM     15  N   UNL     1     140.004  95.416 134.449  1.00  0.00    -0.276 NA
ATOM     16  C   UNL     1     139.582  95.294 133.060  1.00  0.00     0.220 C 
ENDROOT
BRANCH  14  17
ATOM     17  C   UNL     1     141.514  95.957 136.175  1.00  0.00     0.019 A 
ATOM     18  C   UNL     1     142.144  94.862 136.779  1.00  0.00     0.012 A 
ATOM     19  C   UNL     1     141.239  97.113 136.916  1.00  0.00     0.050 A 
ATOM     20  C   UNL     1     142.490  94.919 138.129  1.00  0.00     0.001 A 
ATOM     21  C   UNL     1     141.588  97.160 138.268  1.00  0.00     0.021 A 
ATOM     22  C   UNL     1     142.212  96.066 138.873  1.00  0.00     0.002 A 
ATOM     23  Cl  UNL     1     140.420  98.474 136.240  1.00  0.00    -0.084 Cl
ENDBRANCH  14  17
TORSDOF 1
ENDMDL
MODEL 5
REMARK VINA RESULT:    -6.428      3.201      4.238
REMARK INTER + INTRA:          -7.429
REMARK INTER:                  -6.800
REMARK INTRA:                  -0.628
REMARK UNBOUND:                -0.625
REMARK SMILES Cc1nnc2n1-c1ccc(Cl)cc1C(c1ccccc1Cl)=NC2
REMARK SMILES IDX 1 1 2 2 3 3 4 4 5 5 6 6 7 7 8 8 9 9 10 10 11 11 12 12 13 13
REMARK SMILES IDX 14 14 22 15 23 16 15 17 16 18 20 19 17 20 19 21 18 22 21 23
REMARK H PARENT
ROOT
ATOM      1  C   UNL     1     140.071  97.617 138.252  1.00  0.00     0.090 C 
ATOM      2  C   UNL     1     140.445  98.278 136.979  1.00  0.00     0.134 A 
ATOM      3  N   UNL     1     139.728  99.220 136.400  1.00  0.00    -0.135 NA
ATOM      4  N   UNL     1     140.279  99.491 135.181  1.00  0.00    -0.133 NA
ATOM      5  C   UNL     1     141.330  98.715 135.030  1.00  0.00     0.159 A 
ATOM      6  N   UNL     1     141.515  97.948 136.159  1.00  0.00    -0.281 N 
ATOM      7  C   UNL     1     142.615  97.083 136.401  1.00  0.00     0.058 A 
ATOM      8  C   UNL     1     143.111  96.961 137.711  1.00  0.00     0.029 A 
ATOM      9  C   UNL     1     144.222  96.160 137.980  1.00  0.00     0.023 A 
ATOM     10  C   UNL     1     144.853  95.483 136.944  1.00  0.00     0.041 A 
ATOM     11  Cl  UNL     1     146.228  94.504 137.275  1.00  0.00    -0.084 Cl
ATOM     12  C   UNL     1     144.379  95.593 135.639  1.00  0.00     0.033 A 
ATOM     13  C   UNL     1     143.254  96.387 135.352  1.00  0.00     0.026 A 
ATOM     14  C   UNL     1     142.744  96.363 133.943  1.00  0.00     0.076 C 
ATOM     15  N   UNL     1     142.288  97.369 133.280  1.00  0.00    -0.276 NA
ATOM     16  C   UNL     1     142.265  98.693 133.886  1.00  0.00     0.220 C 
ENDROOT
BRANCH  14  17
ATOM     17  C   UNL     1     142.715  95.051 133.246  1.00  0.00     0.019 A 
ATOM     18  C   UNL     1     141.678  94.165 133.563  1.00  0.00     0.012 A 
ATOM     19  C   UNL     1     143.670  94.708 132.282  1.00  0.00     0.050 A 
ATOM     20  C   UNL     1     141.603  92.928 132.922  1.00  0.00     0.001 A 
ATOM     21  C   UNL     1     143.587  93.466 131.645  1.00  0.00     0.021 A 
ATOM     22  C   UNL     1     142.557  92.579 131.965  1.00  0.00     0.002 A 
ATOM     23  Cl  UNL     1     144.998  95.737 131.885  1.00  0.00    -0.084 Cl
ENDBRANCH  14  17
TORSDOF 1
ENDMDL
MODEL 6
REMARK VINA RESULT:    -6.380      3.356      6.136
REMARK INTER + INTRA:          -7.378
REMARK INTER:                  -6.785
REMARK INTRA:                  -0.593
REMARK UNBOUND:                -0.625
REMARK SMILES Cc1nnc2n1-c1ccc(Cl)cc1C(c1ccccc1Cl)=NC2
REMARK SMILES IDX 1 1 2 2 3 3 4 4 5 5 6 6 7 7 8 8 9 9 10 10 11 11 12 12 13 13
REMARK SMILES IDX 14 14 22 15 23 16 15 17 16 18 20 19 17 20 19 21 18 22 21 23
REMARK H PARENT
ROOT
ATOM      1  C   UNL     1     139.565  97.945 132.783  1.00  0.00     0.090 C 
ATOM      2  C   UNL     1     140.991  98.150 132.436  1.00  0.00     0.134 A 
ATOM      3  N   UNL     1     141.403  98.744 131.333  1.00  0.00    -0.135 NA
ATOM      4  N   UNL     1     142.760  98.624 131.262  1.00  0.00    -0.133 NA
ATOM      5  C   UNL     1     143.166  97.962 132.324  1.00  0.00     0.159 A 
ATOM      6  N   UNL     1     142.090  97.668 133.134  1.00  0.00    -0.281 N 
ATOM      7  C   UNL     1     142.161  97.068 134.418  1.00  0.00     0.058 A 
ATOM      8  C   UNL     1     141.250  97.471 135.411  1.00  0.00     0.029 A 
ATOM      9  C   UNL     1     141.321  96.941 136.700  1.00  0.00     0.023 A 
ATOM     10  C   UNL     1     142.306  96.013 137.013  1.00  0.00     0.041 A 
ATOM     11  Cl  UNL     1     142.398  95.368 138.605  1.00  0.00    -0.084 Cl
ATOM     12  C   UNL     1     143.220  95.603 136.045  1.00  0.00     0.033 A 
ATOM     13  C   UNL     1     143.157  96.119 134.738  1.00  0.00     0.026 A 
ATOM     14  C   UNL     1     144.106  95.544 133.731  1.00  0.00     0.076 C 
ATOM     15  N   UNL     1     144.726  96.195 132.809  1.00  0.00    -0.276 NA
ATOM     16  C   UNL     1     144.558  97.637 132.696  1.00  0.00     0.220 C 
ENDROOT
BRANCH  14  17
ATOM     17  C   UNL     1     144.330  94.075 133.760  1.00  0.00     0.019 A 
ATOM     18  C   UNL     1     143.417  93.261 133.078  1.00  0.00     0.012 A 
ATOM     19  C   UNL     1     145.427  93.510 134.420  1.00  0.00     0.050 A 
ATOM     20  C   UNL     1     143.597  91.878 133.066  1.00  0.00     0.001 A 
ATOM     21  C   UNL     1     145.598  92.123 134.403  1.00  0.00     0.021 A 
ATOM     22  C   UNL     1     144.685  91.309 133.728  1.00  0.00     0.002 A 
ATOM     23  Cl  UNL     1     146.556  94.457 135.318  1.00  0.00    -0.084 Cl
ENDBRANCH  14  17
TORSDOF 1
ENDMDL
MODEL 7
REMARK VINA RESULT:    -6.283      3.191      4.896
REMARK INTER + INTRA:          -7.275
REMARK INTER:                  -6.641
REMARK INTRA:                  -0.634
REMARK UNBOUND:                -0.625
REMARK SMILES Cc1nnc2n1-c1ccc(Cl)cc1C(c1ccccc1Cl)=NC2
REMARK SMILES IDX 1 1 2 2 3 3 4 4 5 5 6 6 7 7 8 8 9 9 10 10 11 11 12 12 13 13
REMARK SMILES IDX 14 14 22 15 23 16 15 17 16 18 20 19 17 20 19 21 18 22 21 23
REMARK H PARENT
ROOT
ATOM      1  C   UNL     1     145.449  95.003 135.994  1.00  0.00     0.090 C 
ATOM      2  C   UNL     1     144.467  94.321 135.119  1.00  0.00     0.134 A 
ATOM      3  N   UNL     1     144.784  93.388 134.243  1.00  0.00    -0.135 NA
ATOM      4  N   UNL     1     143.672  93.093 133.509  1.00  0.00    -0.133 NA
ATOM      5  C   UNL     1     142.685  93.845 133.946  1.00  0.00     0.159 A 
ATOM      6  N   UNL     1     143.116  94.620 135.001  1.00  0.00    -0.281 N 
ATOM      7  C   UNL     1     142.298  95.464 135.796  1.00  0.00     0.058 A 
ATOM      8  C   UNL     1     142.578  95.590 137.169  1.00  0.00     0.029 A 
ATOM      9  C   UNL     1     141.766  96.370 137.993  1.00  0.00     0.023 A 
ATOM     10  C   UNL     1     140.663  97.023 137.459  1.00  0.00     0.041 A 
ATOM     11  Cl  UNL     1     139.658  97.977 138.477  1.00  0.00    -0.084 Cl
ATOM     12  C   UNL     1     140.367  96.910 136.103  1.00  0.00     0.033 A 
ATOM     13  C   UNL     1     141.180  96.136 135.255  1.00  0.00     0.026 A 
ATOM     14  C   UNL     1     140.855  96.156 133.792  1.00  0.00     0.076 C 
ATOM     15  N   UNL     1     140.908  95.153 132.986  1.00  0.00    -0.276 NA
ATOM     16  C   UNL     1     141.282  93.836 133.482  1.00  0.00     0.220 C 
ENDROOT
BRANCH  14  17
ATOM     17  C   UNL     1     140.475  97.461 133.191  1.00  0.00     0.019 A 
ATOM     18  C   UNL     1     139.127  97.668 132.873  1.00  0.00     0.012 A 
ATOM     19  C   UNL     1     141.418  98.472 132.970  1.00  0.00     0.050 A 
ATOM     20  C   UNL     1     138.724  98.884 132.322  1.00  0.00     0.001 A 
ATOM     21  C   UNL     1     141.005  99.686 132.416  1.00  0.00     0.021 A 
ATOM     22  C   UNL     1     139.662  99.891 132.093  1.00  0.00     0.002 A 
ATOM     23  Cl  UNL     1     143.100  98.257 133.296  1.00  0.00    -0.084 Cl
ENDBRANCH  14  17
TORSDOF 1
ENDMDL
MODEL 8
REMARK VINA RESULT:    -6.133      2.468      5.404
REMARK INTER + INTRA:          -7.116
REMARK INTER:                  -6.482
REMARK INTRA:                  -0.635
REMARK UNBOUND:                -0.625
REMARK SMILES Cc1nnc2n1-c1ccc(Cl)cc1C(c1ccccc1Cl)=NC2
REMARK SMILES IDX 1 1 2 2 3 3 4 4 5 5 6 6 7 7 8 8 9 9 10 10 11 11 12 12 13 13
REMARK SMILES IDX 14 14 22 15 23 16 15 17 16 18 20 19 17 20 19 21 18 22 21 23
REMARK H PARENT
ROOT
ATOM      1  C   UNL     1     140.035  99.134 134.617  1.00  0.00     0.090 C 
ATOM      2  C   UNL     1     140.480  98.307 135.763  1.00  0.00     0.134 A 
ATOM      3  N   UNL     1     140.586  98.756 136.998  1.00  0.00    -0.135 NA
ATOM      4  N   UNL     1     141.165  97.783 137.760  1.00  0.00    -0.133 NA
ATOM      5  C   UNL     1     141.401  96.747 136.985  1.00  0.00     0.159 A 
ATOM      6  N   UNL     1     140.948  97.002 135.709  1.00  0.00    -0.281 N 
ATOM      7  C   UNL     1     140.928  96.071 134.637  1.00  0.00     0.058 A 
ATOM      8  C   UNL     1     139.864  96.113 133.717  1.00  0.00     0.029 A 
ATOM      9  C   UNL     1     139.783  95.183 132.680  1.00  0.00     0.023 A 
ATOM     10  C   UNL     1     140.754  94.198 132.557  1.00  0.00     0.041 A 
ATOM     11  Cl  UNL     1     140.647  93.046 131.284  1.00  0.00    -0.084 Cl
ATOM     12  C   UNL     1     141.813  94.137 133.459  1.00  0.00     0.033 A 
ATOM     13  C   UNL     1     141.917  95.073 134.504  1.00  0.00     0.026 A 
ATOM     14  C   UNL     1     143.144  95.004 135.362  1.00  0.00     0.076 C 
ATOM     15  N   UNL     1     143.194  95.181 136.636  1.00  0.00    -0.276 NA
ATOM     16  C   UNL     1     141.973  95.445 137.385  1.00  0.00     0.220 C 
ENDROOT
BRANCH  14  17
ATOM     17  C   UNL     1     144.443  94.752 134.683  1.00  0.00     0.019 A 
ATOM     18  C   UNL     1     145.005  93.475 134.800  1.00  0.00     0.012 A 
ATOM     19  C   UNL     1     145.081  95.741 133.926  1.00  0.00     0.050 A 
ATOM     20  C   UNL     1     146.215  93.190 134.167  1.00  0.00     0.001 A 
ATOM     21  C   UNL     1     146.294  95.447 133.296  1.00  0.00     0.021 A 
ATOM     22  C   UNL     1     146.859  94.175 133.417  1.00  0.00     0.002 A 
ATOM     23  Cl  UNL     1     144.462  97.346 133.787  1.00  0.00    -0.084 Cl
ENDBRANCH  14  17
TORSDOF 1
ENDMDL
MODEL 9
REMARK VINA RESULT:    -6.093      2.066      5.212
REMARK INTER + INTRA:          -7.074
REMARK INTER:                  -6.439
REMARK INTRA:                  -0.635
REMARK UNBOUND:                -0.625
REMARK SMILES Cc1nnc2n1-c1ccc(Cl)cc1C(c1ccccc1Cl)=NC2
REMARK SMILES IDX 1 1 2 2 3 3 4 4 5 5 6 6 7 7 8 8 9 9 10 10 11 11 12 12 13 13
REMARK SMILES IDX 14 14 22 15 23 16 15 17 16 18 20 19 17 20 19 21 18 22 21 23
REMARK H PARENT
ROOT
ATOM      1  C   UNL     1     140.034  99.617 130.629  1.00  0.00     0.090 C 
ATOM      2  C   UNL     1     139.979  99.574 132.109  1.00  0.00     0.134 A 
ATOM      3  N   UNL     1     139.822 100.638 132.872  1.00  0.00    -0.135 NA
ATOM      4  N   UNL     1     139.971 100.259 134.174  1.00  0.00    -0.133 NA
ATOM      5  C   UNL     1     140.212  98.966 134.195  1.00  0.00     0.159 A 
ATOM      6  N   UNL     1     140.188  98.462 132.913  1.00  0.00    -0.281 N 
ATOM      7  C   UNL     1     140.289  97.090 132.561  1.00  0.00     0.058 A 
ATOM      8  C   UNL     1     139.550  96.611 131.464  1.00  0.00     0.029 A 
ATOM      9  C   UNL     1     139.584  95.259 131.118  1.00  0.00     0.023 A 
ATOM     10  C   UNL     1     140.346  94.373 131.868  1.00  0.00     0.041 A 
ATOM     11  Cl  UNL     1     140.380  92.706 131.447  1.00  0.00    -0.084 Cl
ATOM     12  C   UNL     1     141.083  94.827 132.960  1.00  0.00     0.033 A 
ATOM     13  C   UNL     1     141.068  96.188 133.316  1.00  0.00     0.026 A 
ATOM     14  C   UNL     1     141.973  96.609 134.434  1.00  0.00     0.076 C 
ATOM     15  N   UNL     1     141.700  97.470 135.352  1.00  0.00    -0.276 NA
ATOM     16  C   UNL     1     140.393  98.111 135.387  1.00  0.00     0.220 C 
ENDROOT
BRANCH  14  17
ATOM     17  C   UNL     1     143.336  96.019 134.474  1.00  0.00     0.019 A 
ATOM     18  C   UNL     1     143.599  95.043 135.444  1.00  0.00     0.012 A 
ATOM     19  C   UNL     1     144.328  96.395 133.561  1.00  0.00     0.050 A 
ATOM     20  C   UNL     1     144.860  94.450 135.507  1.00  0.00     0.001 A 
ATOM     21  C   UNL     1     145.589  95.796 133.633  1.00  0.00     0.021 A 
ATOM     22  C   UNL     1     145.854  94.827 134.604  1.00  0.00     0.002 A 
ATOM     23  Cl  UNL     1     144.079  97.625 132.377  1.00  0.00    -0.084 Cl
ENDBRANCH  14  17
TORSDOF 1
ENDMDL
