MODEL 1
REMARK VINA RESULT:    -8.112      0.000      0.000
REMARK INTER + INTRA:         -10.041
REMARK INTER:                  -9.535
REMARK INTRA:                  -0.505
REMARK UNBOUND:                -0.505
REMARK SMILES CN1CCN(C(=O)OC2c3nccnc3C(=O)N2c2ccc(Cl)cn2)CC1
REMARK SMILES IDX 9 1 10 2 11 3 12 4 13 5 14 6 15 7 16 8 17 9 18 10 8 11 6 12
REMARK SMILES IDX 2 13 3 14 27 15 4 16 26 17 5 18 7 19 1 20 19 21 20 22 25 23
REMARK SMILES IDX 21 24 24 25 22 26 23 27
REMARK H PARENT
ROOT
ATOM      1  C   UNL     1     144.201  96.572 141.482  1.00  0.00     0.338 C 
ATOM      2  C   UNL     1     142.935  95.851 141.874  1.00  0.00     0.134 A 
ATOM      3  N   UNL     1     142.333  94.821 141.237  1.00  0.00    -0.251 NA
ATOM      4  C   UNL     1     141.189  94.399 141.834  1.00  0.00     0.131 A 
ATOM      5  C   UNL     1     140.681  94.980 142.998  1.00  0.00     0.132 A 
ATOM      6  N   UNL     1     141.286  96.015 143.631  1.00  0.00    -0.247 NA
ATOM      7  C   UNL     1     142.418  96.416 143.020  1.00  0.00     0.156 A 
ATOM      8  C   UNL     1     143.307  97.500 143.463  1.00  0.00     0.283 C 
ATOM      9  O   UNL     1     143.110  98.174 144.457  1.00  0.00    -0.267 OA
ATOM     10  N   UNL     1     144.358  97.548 142.556  1.00  0.00    -0.248 N 
ENDROOT
BRANCH   1  11
ATOM     11  O   UNL     1     143.971  97.267 140.261  1.00  0.00    -0.419 OA
BRANCH  11  12
ATOM     12  C   UNL     1     144.532  96.679 139.175  1.00  0.00     0.412 C 
ATOM     13  N   UNL     1     141.911  96.752 135.715  1.00  0.00    -0.303 NA
ATOM     14  C   UNL     1     141.397  96.479 137.072  1.00  0.00     0.106 C 
ATOM     15  C   UNL     1     143.388  96.731 135.650  1.00  0.00     0.106 C 
ATOM     16  C   UNL     1     142.272  97.081 138.185  1.00  0.00     0.138 C 
ATOM     17  C   UNL     1     144.092  96.050 136.840  1.00  0.00     0.138 C 
ATOM     18  N   UNL     1     143.651  96.598 138.118  1.00  0.00    -0.306 N 
ATOM     19  O   UNL     1     145.686  96.270 139.132  1.00  0.00    -0.224 OA
ATOM     20  C   UNL     1     141.310  95.845 134.741  1.00  0.00     0.105 C 
ENDBRANCH  11  12
ENDBRANCH   1  11
BRANCH  10  21
ATOM     21  C   UNL     1     145.497  98.369 142.600  1.00  0.00     0.138 A 
ATOM     22  C   UNL     1     145.578  99.488 143.426  1.00  0.00     0.049 A 
ATOM     23  N   UNL     1     146.531  98.015 141.800  1.00  0.00    -0.237 NA
ATOM     24  C   UNL     1     146.741 100.265 143.428  1.00  0.00     0.026 A 
ATOM     25  C   UNL     1     147.650  98.783 141.816  1.00  0.00     0.134 A 
ATOM     26  C   UNL     1     147.798  99.907 142.608  1.00  0.00     0.059 A 
ATOM     27  Cl  UNL     1     149.242 100.830 142.576  1.00  0.00    -0.083 Cl
ENDBRANCH  10  21
TORSDOF 3
ENDMDL
MODEL 2
REMARK VINA RESULT:    -7.698      4.067      6.333
REMARK INTER + INTRA:          -9.554
REMARK INTER:                  -8.587
REMARK INTRA:                  -0.967
REMARK UNBOUND:                -0.505
REMARK SMILES CN1CCN(C(=O)OC2c3nccnc3C(=O)N2c2ccc(Cl)cn2)CC1
REMARK SMILES IDX 9 1 10 2 11 3 12 4 13 5 14 6 15 7 16 8 17 9 18 10 8 11 6 12
REMARK SMILES IDX 2 13 3 14 27 15 4 16 26 17 5 18 7 19 1 20 19 21 20 22 25 23
REMARK SMILES IDX 21 24 24 25 22 26 23 27
REMARK H PARENT
ROOT
ATOM      1  C   UNL     1     142.062  96.133 137.918  1.00  0.00     0.338 C 
ATOM      2  C   UNL     1     142.170  96.114 139.423  1.00  0.00     0.134 A 
ATOM      3  N   UNL     1     141.236  96.485 140.328  1.00  0.00    -0.251 NA
ATOM      4  C   UNL     1     141.645  96.366 141.618  1.00  0.00     0.131 A 
ATOM      5  C   UNL     1     142.914  95.904 141.973  1.00  0.00     0.132 A 
ATOM      6  N   UNL     1     143.847  95.535 141.061  1.00  0.00    -0.247 NA
ATOM      7  C   UNL     1     143.420  95.664 139.789  1.00  0.00     0.156 A 
ATOM      8  C   UNL     1     144.186  95.337 138.578  1.00  0.00     0.283 C 
ATOM      9  O   UNL     1     145.325  94.905 138.593  1.00  0.00    -0.267 OA
ATOM     10  N   UNL     1     143.353  95.596 137.498  1.00  0.00    -0.248 N 
ENDROOT
BRANCH   1  11
ATOM     11  O   UNL     1     141.966  97.486 137.485  1.00  0.00    -0.419 OA
BRANCH  11  12
ATOM     12  C   UNL     1     140.767  97.809 136.940  1.00  0.00     0.412 C 
ATOM     13  N   UNL     1     141.053  98.636 132.687  1.00  0.00    -0.303 NA
ATOM     14  C   UNL     1     142.081  99.102 133.639  1.00  0.00     0.106 C 
ATOM     15  C   UNL     1     139.845  98.115 133.363  1.00  0.00     0.106 C 
ATOM     16  C   UNL     1     142.164  98.242 134.912  1.00  0.00     0.138 C 
ATOM     17  C   UNL     1     139.693  98.513 134.843  1.00  0.00     0.138 C 
ATOM     18  N   UNL     1     140.884  98.187 135.619  1.00  0.00    -0.306 N 
ATOM     19  O   UNL     1     139.702  97.768 137.543  1.00  0.00    -0.224 OA
ATOM     20  C   UNL     1     140.729  99.682 131.721  1.00  0.00     0.105 C 
ENDBRANCH  11  12
ENDBRANCH   1  11
BRANCH  10  21
ATOM     21  C   UNL     1     143.611  95.367 136.136  1.00  0.00     0.138 A 
ATOM     22  C   UNL     1     142.764  94.607 135.333  1.00  0.00     0.049 A 
ATOM     23  N   UNL     1     144.731  95.935 135.628  1.00  0.00    -0.237 NA
ATOM     24  C   UNL     1     143.074  94.419 133.983  1.00  0.00     0.026 A 
ATOM     25  C   UNL     1     145.014  95.739 134.316  1.00  0.00     0.134 A 
ATOM     26  C   UNL     1     144.221  94.995 133.462  1.00  0.00     0.059 A 
ATOM     27  Cl  UNL     1     144.640  94.789 131.814  1.00  0.00    -0.083 Cl
ENDBRANCH  10  21
TORSDOF 3
ENDMDL
MODEL 3
REMARK VINA RESULT:    -7.621      3.234      5.983
REMARK INTER + INTRA:          -9.463
REMARK INTER:                  -9.126
REMARK INTRA:                  -0.337
REMARK UNBOUND:                -0.505
REMARK SMILES CN1CCN(C(=O)OC2c3nccnc3C(=O)N2c2ccc(Cl)cn2)CC1
REMARK SMILES IDX 9 1 10 2 11 3 12 4 13 5 14 6 15 7 16 8 17 9 18 10 8 11 6 12
REMARK SMILES IDX 2 13 3 14 27 15 4 16 26 17 5 18 7 19 1 20 19 21 20 22 25 23
REMARK SMILES IDX 21 24 24 25 22 26 23 27
REMARK H PARENT
ROOT
ATOM      1  C   UNL     1     142.979  97.059 137.395  1.00  0.00     0.338 C 
ATOM      2  C   UNL     1     143.773  96.697 136.165  1.00  0.00     0.134 A 
ATOM      3  N   UNL     1     143.645  97.199 134.915  1.00  0.00    -0.251 NA
ATOM      4  C   UNL     1     144.503  96.654 134.015  1.00  0.00     0.131 A 
ATOM      5  C   UNL     1     145.429  95.664 134.351  1.00  0.00     0.132 A 
ATOM      6  N   UNL     1     145.551  95.163 135.604  1.00  0.00    -0.247 NA
ATOM      7  C   UNL     1     144.690  95.718 136.480  1.00  0.00     0.156 A 
ATOM      8  C   UNL     1     144.580  95.400 137.911  1.00  0.00     0.283 C 
ATOM      9  O   UNL     1     145.275  94.576 138.477  1.00  0.00    -0.267 OA
ATOM     10  N   UNL     1     143.588  96.224 138.426  1.00  0.00    -0.248 N 
ENDROOT
BRANCH   1  11
ATOM     11  O   UNL     1     141.630  96.643 137.206  1.00  0.00    -0.419 OA
BRANCH  11  12
ATOM     12  C   UNL     1     140.902  97.468 136.414  1.00  0.00     0.412 C 
ATOM     13  N   UNL     1     138.984  95.354 133.142  1.00  0.00    -0.303 NA
ATOM     14  C   UNL     1     140.362  95.039 133.568  1.00  0.00     0.106 C 
ATOM     15  C   UNL     1     138.467  96.594 133.760  1.00  0.00     0.106 C 
ATOM     16  C   UNL     1     140.641  95.396 135.038  1.00  0.00     0.138 C 
ATOM     17  C   UNL     1     139.534  97.522 134.372  1.00  0.00     0.138 C 
ATOM     18  N   UNL     1     140.395  96.813 135.312  1.00  0.00    -0.306 N 
ATOM     19  O   UNL     1     140.710  98.655 136.647  1.00  0.00    -0.224 OA
ATOM     20  C   UNL     1     138.887  95.388 131.686  1.00  0.00     0.105 C 
ENDBRANCH  11  12
ENDBRANCH   1  11
BRANCH  10  21
ATOM     21  C   UNL     1     143.174  96.341 139.764  1.00  0.00     0.138 A 
ATOM     22  C   UNL     1     141.904  95.958 140.188  1.00  0.00     0.049 A 
ATOM     23  N   UNL     1     144.081  96.842 140.637  1.00  0.00    -0.237 NA
ATOM     24  C   UNL     1     141.553  96.096 141.535  1.00  0.00     0.026 A 
ATOM     25  C   UNL     1     143.720  96.969 141.938  1.00  0.00     0.134 A 
ATOM     26  C   UNL     1     142.478  96.611 142.428  1.00  0.00     0.059 A 
ATOM     27  Cl  UNL     1     142.090  96.799 144.087  1.00  0.00    -0.083 Cl
ENDBRANCH  10  21
TORSDOF 3
ENDMDL
MODEL 4
REMARK VINA RESULT:    -7.460      4.471      6.782
REMARK INTER + INTRA:          -9.274
REMARK INTER:                  -8.314
REMARK INTRA:                  -0.960
REMARK UNBOUND:                -0.505
REMARK SMILES CN1CCN(C(=O)OC2c3nccnc3C(=O)N2c2ccc(Cl)cn2)CC1
REMARK SMILES IDX 9 1 10 2 11 3 12 4 13 5 14 6 15 7 16 8 17 9 18 10 8 11 6 12
REMARK SMILES IDX 2 13 3 14 27 15 4 16 26 17 5 18 7 19 1 20 19 21 20 22 25 23
REMARK SMILES IDX 21 24 24 25 22 26 23 27
REMARK H PARENT
ROOT
ATOM      1  C   UNL     1     142.939  96.735 136.973  1.00  0.00     0.338 C 
ATOM      2  C   UNL     1     142.859  96.360 138.432  1.00  0.00     0.134 A 
ATOM      3  N   UNL     1     143.806  95.761 139.189  1.00  0.00    -0.251 NA
ATOM      4  C   UNL     1     143.422  95.540 140.473  1.00  0.00     0.131 A 
ATOM      5  C   UNL     1     142.164  95.897 140.962  1.00  0.00     0.132 A 
ATOM      6  N   UNL     1     141.218  96.496 140.198  1.00  0.00    -0.247 NA
ATOM      7  C   UNL     1     141.620  96.704 138.928  1.00  0.00     0.156 A 
ATOM      8  C   UNL     1     140.835  97.339 137.861  1.00  0.00     0.283 C 
ATOM      9  O   UNL     1     139.701  97.757 138.011  1.00  0.00    -0.267 OA
ATOM     10  N   UNL     1     141.647  97.369 136.734  1.00  0.00    -0.248 N 
ENDROOT
BRANCH   1  11
ATOM     11  O   UNL     1     143.016  95.543 136.199  1.00  0.00    -0.419 OA
BRANCH  11  12
ATOM     12  C   UNL     1     144.162  95.419 135.484  1.00  0.00     0.412 C 
ATOM     13  N   UNL     1     143.424  95.125 131.215  1.00  0.00    -0.303 NA
ATOM     14  C   UNL     1     142.567  94.436 132.200  1.00  0.00     0.106 C 
ATOM     15  C   UNL     1     144.657  95.675 131.820  1.00  0.00     0.106 C 
ATOM     16  C   UNL     1     142.567  95.111 133.582  1.00  0.00     0.138 C 
ATOM     17  C   UNL     1     145.025  95.107 133.203  1.00  0.00     0.138 C 
ATOM     18  N   UNL     1     143.915  95.205 134.144  1.00  0.00    -0.306 N 
ATOM     19  O   UNL     1     145.285  95.491 135.965  1.00  0.00    -0.224 OA
ATOM     20  C   UNL     1     143.716  94.252 130.081  1.00  0.00     0.105 C 
ENDBRANCH  11  12
ENDBRANCH   1  11
BRANCH  10  21
ATOM     21  C   UNL     1     141.365  97.948 135.485  1.00  0.00     0.138 A 
ATOM     22  C   UNL     1     140.097  97.903 134.911  1.00  0.00     0.049 A 
ATOM     23  N   UNL     1     142.394  98.569 134.859  1.00  0.00    -0.237 NA
ATOM     24  C   UNL     1     139.879  98.501 133.666  1.00  0.00     0.026 A 
ATOM     25  C   UNL     1     142.161  99.142 133.652  1.00  0.00     0.134 A 
ATOM     26  C   UNL     1     140.930  99.133 133.023  1.00  0.00     0.059 A 
ATOM     27  Cl  UNL     1     140.708  99.878 131.495  1.00  0.00    -0.083 Cl
ENDBRANCH  10  21
TORSDOF 3
ENDMDL
MODEL 5
REMARK VINA RESULT:    -7.254      4.208      7.274
REMARK INTER + INTRA:          -9.031
REMARK INTER:                  -8.172
REMARK INTRA:                  -0.860
REMARK UNBOUND:                -0.505
REMARK SMILES CN1CCN(C(=O)OC2c3nccnc3C(=O)N2c2ccc(Cl)cn2)CC1
REMARK SMILES IDX 9 1 10 2 11 3 12 4 13 5 14 6 15 7 16 8 17 9 18 10 8 11 6 12
REMARK SMILES IDX 2 13 3 14 27 15 4 16 26 17 5 18 7 19 1 20 19 21 20 22 25 23
REMARK SMILES IDX 21 24 24 25 22 26 23 27
REMARK H PARENT
ROOT
ATOM      1  C   UNL     1     143.535  96.884 135.582  1.00  0.00     0.338 C 
ATOM      2  C   UNL     1     144.267  96.618 134.289  1.00  0.00     0.134 A 
ATOM      3  N   UNL     1     144.142  97.276 133.113  1.00  0.00    -0.251 NA
ATOM      4  C   UNL     1     144.932  96.784 132.124  1.00  0.00     0.131 A 
ATOM      5  C   UNL     1     145.790  95.698 132.307  1.00  0.00     0.132 A 
ATOM      6  N   UNL     1     145.909  95.041 133.487  1.00  0.00    -0.247 NA
ATOM      7  C   UNL     1     145.116  95.545 134.452  1.00  0.00     0.156 A 
ATOM      8  C   UNL     1     145.022  95.066 135.839  1.00  0.00     0.283 C 
ATOM      9  O   UNL     1     145.668  94.132 136.277  1.00  0.00    -0.267 OA
ATOM     10  N   UNL     1     144.108  95.889 136.483  1.00  0.00    -0.248 N 
ENDROOT
BRANCH   1  11
ATOM     11  O   UNL     1     142.154  96.590 135.393  1.00  0.00    -0.419 OA
BRANCH  11  12
ATOM     12  C   UNL     1     141.377  97.684 135.198  1.00  0.00     0.412 C 
ATOM     13  N   UNL     1     138.933  97.361 131.623  1.00  0.00    -0.303 NA
ATOM     14  C   UNL     1     140.336  96.898 131.650  1.00  0.00     0.106 C 
ATOM     15  C   UNL     1     138.572  98.151 132.820  1.00  0.00     0.106 C 
ATOM     16  C   UNL     1     140.822  96.515 133.058  1.00  0.00     0.138 C 
ATOM     17  C   UNL     1     139.760  98.687 133.641  1.00  0.00     0.138 C 
ATOM     18  N   UNL     1     140.695  97.627 134.001  1.00  0.00    -0.306 N 
ATOM     19  O   UNL     1     141.284  98.614 135.989  1.00  0.00    -0.224 OA
ATOM     20  C   UNL     1     138.650  98.083 130.386  1.00  0.00     0.105 C 
ENDBRANCH  11  12
ENDBRANCH   1  11
BRANCH  10  21
ATOM     21  C   UNL     1     143.741  95.873 137.840  1.00  0.00     0.138 A 
ATOM     22  C   UNL     1     144.366  96.675 138.791  1.00  0.00     0.049 A 
ATOM     23  N   UNL     1     142.731  95.038 138.184  1.00  0.00    -0.237 NA
ATOM     24  C   UNL     1     143.953  96.617 140.126  1.00  0.00     0.026 A 
ATOM     25  C   UNL     1     142.346  94.996 139.485  1.00  0.00     0.134 A 
ATOM     26  C   UNL     1     142.923  95.761 140.481  1.00  0.00     0.059 A 
ATOM     27  Cl  UNL     1     142.386  95.656 142.105  1.00  0.00    -0.083 Cl
ENDBRANCH  10  21
TORSDOF 3
ENDMDL
MODEL 6
REMARK VINA RESULT:    -7.113      3.751      7.779
REMARK INTER + INTRA:          -8.865
REMARK INTER:                  -7.810
REMARK INTRA:                  -1.056
REMARK UNBOUND:                -0.505
REMARK SMILES CN1CCN(C(=O)OC2c3nccnc3C(=O)N2c2ccc(Cl)cn2)CC1
REMARK SMILES IDX 9 1 10 2 11 3 12 4 13 5 14 6 15 7 16 8 17 9 18 10 8 11 6 12
REMARK SMILES IDX 2 13 3 14 27 15 4 16 26 17 5 18 7 19 1 20 19 21 20 22 25 23
REMARK SMILES IDX 21 24 24 25 22 26 23 27
REMARK H PARENT
ROOT
ATOM      1  C   UNL     1     143.697  96.359 135.877  1.00  0.00     0.338 C 
ATOM      2  C   UNL     1     142.425  97.085 135.516  1.00  0.00     0.134 A 
ATOM      3  N   UNL     1     141.787  98.046 136.223  1.00  0.00    -0.251 NA
ATOM      4  C   UNL     1     140.647  98.493 135.635  1.00  0.00     0.131 A 
ATOM      5  C   UNL     1     140.179  98.003 134.414  1.00  0.00     0.132 A 
ATOM      6  N   UNL     1     140.822  97.038 133.711  1.00  0.00    -0.247 NA
ATOM      7  C   UNL     1     141.948  96.609 134.314  1.00  0.00     0.156 A 
ATOM      8  C   UNL     1     142.870  95.584 133.804  1.00  0.00     0.283 C 
ATOM      9  O   UNL     1     142.711  94.993 132.752  1.00  0.00    -0.267 OA
ATOM     10  N   UNL     1     143.901  95.481 134.729  1.00  0.00    -0.248 N 
ENDROOT
BRANCH   1  11
ATOM     11  O   UNL     1     143.455  95.559 137.030  1.00  0.00    -0.419 OA
BRANCH  11  12
ATOM     12  C   UNL     1     144.173  95.926 138.120  1.00  0.00     0.412 C 
ATOM     13  N   UNL     1     141.764  96.015 141.732  1.00  0.00    -0.303 NA
ATOM     14  C   UNL     1     141.244  96.507 140.440  1.00  0.00     0.106 C 
ATOM     15  C   UNL     1     143.220  95.754 141.698  1.00  0.00     0.106 C 
ATOM     16  C   UNL     1     141.930  95.860 139.224  1.00  0.00     0.138 C 
ATOM     17  C   UNL     1     143.979  96.402 140.525  1.00  0.00     0.138 C 
ATOM     18  N   UNL     1     143.378  96.069 139.238  1.00  0.00    -0.306 N 
ATOM     19  O   UNL     1     145.384  96.107 138.120  1.00  0.00    -0.224 OA
ATOM     20  C   UNL     1     141.398  96.922 142.816  1.00  0.00     0.105 C 
ENDBRANCH  11  12
ENDBRANCH   1  11
BRANCH  10  21
ATOM     21  C   UNL     1     145.059  94.689 134.644  1.00  0.00     0.138 A 
ATOM     22  C   UNL     1     145.021  93.300 134.743  1.00  0.00     0.049 A 
ATOM     23  N   UNL     1     146.228  95.344 134.450  1.00  0.00    -0.237 NA
ATOM     24  C   UNL     1     146.207  92.566 134.647  1.00  0.00     0.026 A 
ATOM     25  C   UNL     1     147.368  94.613 134.361  1.00  0.00     0.134 A 
ATOM     26  C   UNL     1     147.405  93.235 134.452  1.00  0.00     0.059 A 
ATOM     27  Cl  UNL     1     148.883  92.376 134.330  1.00  0.00    -0.083 Cl
ENDBRANCH  10  21
TORSDOF 3
ENDMDL
MODEL 7
REMARK VINA RESULT:    -7.025      6.128      8.433
REMARK INTER + INTRA:          -8.762
REMARK INTER:                  -7.879
REMARK INTRA:                  -0.884
REMARK UNBOUND:                -0.505
REMARK SMILES CN1CCN(C(=O)OC2c3nccnc3C(=O)N2c2ccc(Cl)cn2)CC1
REMARK SMILES IDX 9 1 10 2 11 3 12 4 13 5 14 6 15 7 16 8 17 9 18 10 8 11 6 12
REMARK SMILES IDX 2 13 3 14 27 15 4 16 26 17 5 18 7 19 1 20 19 21 20 22 25 23
REMARK SMILES IDX 21 24 24 25 22 26 23 27
REMARK H PARENT
ROOT
ATOM      1  C   UNL     1     143.232  96.506 133.939  1.00  0.00     0.338 C 
ATOM      2  C   UNL     1     144.264  95.744 134.734  1.00  0.00     0.134 A 
ATOM      3  N   UNL     1     145.137  94.813 134.286  1.00  0.00    -0.251 NA
ATOM      4  C   UNL     1     145.931  94.294 135.258  1.00  0.00     0.131 A 
ATOM      5  C   UNL     1     145.849  94.685 136.596  1.00  0.00     0.132 A 
ATOM      6  N   UNL     1     144.970  95.617 137.040  1.00  0.00    -0.247 NA
ATOM      7  C   UNL     1     144.192  96.117 136.059  1.00  0.00     0.156 A 
ATOM      8  C   UNL     1     143.154  97.146 136.212  1.00  0.00     0.283 C 
ATOM      9  O   UNL     1     142.875  97.673 137.274  1.00  0.00    -0.267 OA
ATOM     10  N   UNL     1     142.630  97.373 134.947  1.00  0.00    -0.248 N 
ENDROOT
BRANCH   1  11
ATOM     11  O   UNL     1     142.247  95.590 133.474  1.00  0.00    -0.419 OA
BRANCH  11  12
ATOM     12  C   UNL     1     142.124  95.547 132.124  1.00  0.00     0.412 C 
ATOM     13  N   UNL     1     138.122  96.579 130.794  1.00  0.00    -0.303 NA
ATOM     14  C   UNL     1     138.351  95.738 131.986  1.00  0.00     0.106 C 
ATOM     15  C   UNL     1     139.352  96.789 130.000  1.00  0.00     0.106 C 
ATOM     16  C   UNL     1     139.718  95.982 132.648  1.00  0.00     0.138 C 
ATOM     17  C   UNL     1     140.503  95.808 130.294  1.00  0.00     0.138 C 
ATOM     18  N   UNL     1     140.824  95.758 131.716  1.00  0.00    -0.306 N 
ATOM     19  O   UNL     1     143.055  95.350 131.353  1.00  0.00    -0.224 OA
ATOM     20  C   UNL     1     137.033  96.042 129.982  1.00  0.00     0.105 C 
ENDBRANCH  11  12
ENDBRANCH   1  11
BRANCH  10  21
ATOM     21  C   UNL     1     141.664  98.323 134.572  1.00  0.00     0.138 A 
ATOM     22  C   UNL     1     141.705  98.985 133.347  1.00  0.00     0.049 A 
ATOM     23  N   UNL     1     140.673  98.563 135.463  1.00  0.00    -0.237 NA
ATOM     24  C   UNL     1     140.712  99.917 133.030  1.00  0.00     0.026 A 
ATOM     25  C   UNL     1     139.720  99.472 135.137  1.00  0.00     0.134 A 
ATOM     26  C   UNL     1     139.699 100.167 133.942  1.00  0.00     0.059 A 
ATOM     27  Cl  UNL     1     138.464 101.303 133.596  1.00  0.00    -0.083 Cl
ENDBRANCH  10  21
TORSDOF 3
ENDMDL
MODEL 8
REMARK VINA RESULT:    -6.941      4.088      6.913
REMARK INTER + INTRA:          -8.663
REMARK INTER:                  -8.050
REMARK INTRA:                  -0.613
REMARK UNBOUND:                -0.505
REMARK SMILES CN1CCN(C(=O)OC2c3nccnc3C(=O)N2c2ccc(Cl)cn2)CC1
REMARK SMILES IDX 9 1 10 2 11 3 12 4 13 5 14 6 15 7 16 8 17 9 18 10 8 11 6 12
REMARK SMILES IDX 2 13 3 14 27 15 4 16 26 17 5 18 7 19 1 20 19 21 20 22 25 23
REMARK SMILES IDX 21 24 24 25 22 26 23 27
REMARK H PARENT
ROOT
ATOM      1  C   UNL     1     141.903  96.307 135.667  1.00  0.00     0.338 C 
ATOM      2  C   UNL     1     141.130  96.921 134.525  1.00  0.00     0.134 A 
ATOM      3  N   UNL     1     141.066  96.497 133.242  1.00  0.00    -0.251 NA
ATOM      4  C   UNL     1     140.293  97.278 132.445  1.00  0.00     0.131 A 
ATOM      5  C   UNL     1     139.629  98.415 132.909  1.00  0.00     0.132 A 
ATOM      6  N   UNL     1     139.699  98.837 134.196  1.00  0.00    -0.247 NA
ATOM      7  C   UNL     1     140.472  98.048 134.967  1.00  0.00     0.156 A 
ATOM      8  C   UNL     1     140.738  98.227 136.402  1.00  0.00     0.283 C 
ATOM      9  O   UNL     1     140.278  99.137 137.067  1.00  0.00    -0.267 OA
ATOM     10  N   UNL     1     141.557  97.174 136.789  1.00  0.00    -0.248 N 
ENDROOT
BRANCH   1  11
ATOM     11  O   UNL     1     143.295  96.438 135.398  1.00  0.00    -0.419 OA
BRANCH  11  12
ATOM     12  C   UNL     1     143.950  95.256 135.284  1.00  0.00     0.412 C 
ATOM     13  N   UNL     1     146.828  95.265 132.033  1.00  0.00    -0.303 NA
ATOM     14  C   UNL     1     145.500  95.896 131.896  1.00  0.00     0.106 C 
ATOM     15  C   UNL     1     146.943  94.441 133.256  1.00  0.00     0.106 C 
ATOM     16  C   UNL     1     144.897  96.341 133.240  1.00  0.00     0.138 C 
ATOM     17  C   UNL     1     145.608  94.057 133.921  1.00  0.00     0.138 C 
ATOM     18  N   UNL     1     144.773  95.225 134.179  1.00  0.00    -0.306 N 
ATOM     19  O   UNL     1     143.833  94.324 136.071  1.00  0.00    -0.224 OA
ATOM     20  C   UNL     1     147.168  94.508 130.831  1.00  0.00     0.105 C 
ENDBRANCH  11  12
ENDBRANCH   1  11
BRANCH  10  21
ATOM     21  C   UNL     1     142.019  96.872 138.081  1.00  0.00     0.138 A 
ATOM     22  C   UNL     1     143.375  96.820 138.395  1.00  0.00     0.049 A 
ATOM     23  N   UNL     1     141.074  96.640 139.023  1.00  0.00    -0.237 NA
ATOM     24  C   UNL     1     143.772  96.517 139.701  1.00  0.00     0.026 A 
ATOM     25  C   UNL     1     141.480  96.347 140.284  1.00  0.00     0.134 A 
ATOM     26  C   UNL     1     142.807  96.276 140.666  1.00  0.00     0.059 A 
ATOM     27  Cl  UNL     1     143.248  95.900 142.279  1.00  0.00    -0.083 Cl
ENDBRANCH  10  21
TORSDOF 3
ENDMDL
MODEL 9
REMARK VINA RESULT:    -6.886      5.124      7.862
REMARK INTER + INTRA:          -8.600
REMARK INTER:                  -8.285
REMARK INTRA:                  -0.314
REMARK UNBOUND:                -0.505
REMARK SMILES CN1CCN(C(=O)OC2c3nccnc3C(=O)N2c2ccc(Cl)cn2)CC1
REMARK SMILES IDX 9 1 10 2 11 3 12 4 13 5 14 6 15 7 16 8 17 9 18 10 8 11 6 12
REMARK SMILES IDX 2 13 3 14 27 15 4 16 26 17 5 18 7 19 1 20 19 21 20 22 25 23
REMARK SMILES IDX 21 24 24 25 22 26 23 27
REMARK H PARENT
ROOT
ATOM      1  C   UNL     1     142.340  97.582 134.100  1.00  0.00     0.338 C 
ATOM      2  C   UNL     1     141.526  98.505 133.228  1.00  0.00     0.134 A 
ATOM      3  N   UNL     1     141.624  98.685 131.890  1.00  0.00    -0.251 NA
ATOM      4  C   UNL     1     140.756  99.606 131.396  1.00  0.00     0.131 A 
ATOM      5  C   UNL     1     139.850 100.303 132.199  1.00  0.00     0.132 A 
ATOM      6  N   UNL     1     139.759 100.121 133.539  1.00  0.00    -0.247 NA
ATOM      7  C   UNL     1     140.630  99.204 134.006  1.00  0.00     0.156 A 
ATOM      8  C   UNL     1     140.771  98.773 135.404  1.00  0.00     0.283 C 
ATOM      9  O   UNL     1     140.099  99.212 136.320  1.00  0.00    -0.267 OA
ATOM     10  N   UNL     1     141.762  97.800 135.422  1.00  0.00    -0.248 N 
ENDROOT
BRANCH   1  11
ATOM     11  O   UNL     1     143.690  98.034 134.109  1.00  0.00    -0.419 OA
BRANCH  11  12
ATOM     12  C   UNL     1     144.447  97.537 133.099  1.00  0.00     0.412 C 
ATOM     13  N   UNL     1     145.935  93.549 133.953  1.00  0.00    -0.303 NA
ATOM     14  C   UNL     1     145.892  94.600 134.990  1.00  0.00     0.106 C 
ATOM     15  C   UNL     1     145.675  94.077 132.597  1.00  0.00     0.106 C 
ATOM     16  C   UNL     1     144.822  95.672 134.723  1.00  0.00     0.138 C 
ATOM     17  C   UNL     1     145.816  95.603 132.443  1.00  0.00     0.138 C 
ATOM     18  N   UNL     1     145.014  96.324 133.426  1.00  0.00    -0.306 N 
ATOM     19  O   UNL     1     144.609  98.095 132.021  1.00  0.00    -0.224 OA
ATOM     20  C   UNL     1     147.192  92.808 134.019  1.00  0.00     0.105 C 
ENDBRANCH  11  12
ENDBRANCH   1  11
BRANCH  10  21
ATOM     21  C   UNL     1     142.200  97.037 136.518  1.00  0.00     0.138 A 
ATOM     22  C   UNL     1     143.000  97.569 137.526  1.00  0.00     0.049 A 
ATOM     23  N   UNL     1     141.796  95.744 136.556  1.00  0.00    -0.237 NA
ATOM     24  C   UNL     1     143.400  96.759 138.593  1.00  0.00     0.026 A 
ATOM     25  C   UNL     1     142.196  94.975 137.599  1.00  0.00     0.134 A 
ATOM     26  C   UNL     1     142.991  95.436 138.632  1.00  0.00     0.059 A 
ATOM     27  Cl  UNL     1     143.459  94.407 139.920  1.00  0.00    -0.083 Cl
ENDBRANCH  10  21
TORSDOF 3
ENDMDL
