MODEL 1
REMARK VINA RESULT:    -8.494      0.000      0.000
REMARK INTER + INTRA:          -9.568
REMARK INTER:                  -9.238
REMARK INTRA:                  -0.330
REMARK UNBOUND:                -0.330
REMARK SMILES O=C1Nc2ccc(Cl)cc2C(c2ccccc2Cl)=NC1O
REMARK SMILES IDX 1 1 2 2 3 3 4 4 5 5 6 6 7 7 8 8 9 9 10 10 11 11 19 12 20 13
REMARK SMILES IDX 21 15 12 17 13 18 17 19 14 20 16 21 15 22 18 23
REMARK H PARENT 3 14 21 16
ROOT
ATOM      1  O   UNL     1     115.609 155.726 114.002  1.00  0.00    -0.269 OA
ATOM      2  C   UNL     1     116.338 156.511 113.390  1.00  0.00     0.276 C 
ATOM      3  N   UNL     1     115.874 157.774 113.120  1.00  0.00    -0.321 N 
ATOM      4  C   UNL     1     116.539 158.801 112.437  1.00  0.00     0.050 A 
ATOM      5  C   UNL     1     116.123 160.107 112.743  1.00  0.00     0.028 A 
ATOM      6  C   UNL     1     116.755 161.212 112.168  1.00  0.00     0.023 A 
ATOM      7  C   UNL     1     117.798 161.018 111.271  1.00  0.00     0.041 A 
ATOM      8  Cl  UNL     1     118.583 162.376 110.567  1.00  0.00    -0.084 Cl
ATOM      9  C   UNL     1     118.195 159.730 110.920  1.00  0.00     0.033 A 
ATOM     10  C   UNL     1     117.555 158.612 111.483  1.00  0.00     0.026 A 
ATOM     11  C   UNL     1     117.871 157.264 110.922  1.00  0.00     0.079 C 
ATOM     12  N   UNL     1     117.944 156.158 111.575  1.00  0.00    -0.243 NA
ATOM     13  C   UNL     1     117.800 156.171 113.023  1.00  0.00     0.323 C 
ATOM     14  H   UNL     1     114.990 157.972 113.570  1.00  0.00     0.170 HD
ENDROOT
BRANCH  13  15
ATOM     15  O   UNL     1     118.732 156.983 113.727  1.00  0.00    -0.364 OA
ATOM     16  H   UNL     1     118.666 156.709 114.657  1.00  0.00     0.213 HD
ENDBRANCH  13  15
BRANCH  11  17
ATOM     17  C   UNL     1     118.057 157.166 109.450  1.00  0.00     0.019 A 
ATOM     18  C   UNL     1     119.320 157.480 108.928  1.00  0.00     0.012 A 
ATOM     19  C   UNL     1     117.012 156.796 108.596  1.00  0.00     0.050 A 
ATOM     20  C   UNL     1     119.537 157.416 107.553  1.00  0.00     0.001 A 
ATOM     21  C   UNL     1     117.239 156.734 107.219  1.00  0.00     0.021 A 
ATOM     22  C   UNL     1     118.498 157.044 106.699  1.00  0.00     0.002 A 
ATOM     23  Cl  UNL     1     115.450 156.352 109.181  1.00  0.00    -0.084 Cl
ENDBRANCH  11  17
TORSDOF 2
ENDMDL
MODEL 2
REMARK VINA RESULT:    -8.301      1.524      1.978
REMARK INTER + INTRA:          -9.358
REMARK INTER:                  -9.252
REMARK INTRA:                  -0.107
REMARK UNBOUND:                -0.330
REMARK SMILES O=C1Nc2ccc(Cl)cc2C(c2ccccc2Cl)=NC1O
REMARK SMILES IDX 1 1 2 2 3 3 4 4 5 5 6 6 7 7 8 8 9 9 10 10 11 11 19 12 20 13
REMARK SMILES IDX 21 15 12 17 13 18 17 19 14 20 16 21 15 22 18 23
REMARK H PARENT 3 14 21 16
ROOT
ATOM      1  O   UNL     1     115.880 154.558 114.780  1.00  0.00    -0.269 OA
ATOM      2  C   UNL     1     116.359 155.514 114.164  1.00  0.00     0.276 C 
ATOM      3  N   UNL     1     115.636 156.676 114.077  1.00  0.00    -0.321 N 
ATOM      4  C   UNL     1     115.998 157.862 113.423  1.00  0.00     0.050 A 
ATOM      5  C   UNL     1     115.394 159.034 113.904  1.00  0.00     0.028 A 
ATOM      6  C   UNL     1     115.724 160.281 113.368  1.00  0.00     0.023 A 
ATOM      7  C   UNL     1     116.651 160.362 112.337  1.00  0.00     0.041 A 
ATOM      8  Cl  UNL     1     117.065 161.896 111.679  1.00  0.00    -0.084 Cl
ATOM      9  C   UNL     1     117.228 159.207 111.815  1.00  0.00     0.033 A 
ATOM     10  C   UNL     1     116.890 157.947 112.339  1.00  0.00     0.026 A 
ATOM     11  C   UNL     1     117.371 156.732 111.614  1.00  0.00     0.079 C 
ATOM     12  N   UNL     1     117.736 155.617 112.141  1.00  0.00    -0.243 NA
ATOM     13  C   UNL     1     117.794 155.496 113.591  1.00  0.00     0.323 C 
ATOM     14  H   UNL     1     114.801 156.663 114.649  1.00  0.00     0.170 HD
ENDROOT
BRANCH  13  15
ATOM     15  O   UNL     1     118.647 156.421 114.252  1.00  0.00    -0.364 OA
ATOM     16  H   UNL     1     118.254 156.557 115.130  1.00  0.00     0.213 HD
ENDBRANCH  13  15
BRANCH  11  17
ATOM     17  C   UNL     1     117.366 156.780 110.128  1.00  0.00     0.019 A 
ATOM     18  C   UNL     1     116.299 156.168 109.457  1.00  0.00     0.012 A 
ATOM     19  C   UNL     1     118.397 157.391 109.405  1.00  0.00     0.050 A 
ATOM     20  C   UNL     1     116.260 156.175 108.063  1.00  0.00     0.001 A 
ATOM     21  C   UNL     1     118.350 157.394 108.009  1.00  0.00     0.021 A 
ATOM     22  C   UNL     1     117.284 156.787 107.340  1.00  0.00     0.002 A 
ATOM     23  Cl  UNL     1     119.714 158.203 110.173  1.00  0.00    -0.084 Cl
ENDBRANCH  11  17
TORSDOF 2
ENDMDL
MODEL 3
REMARK VINA RESULT:    -7.655      3.501      6.483
REMARK INTER + INTRA:          -8.656
REMARK INTER:                  -9.139
REMARK INTRA:                   0.483
REMARK UNBOUND:                -0.330
REMARK SMILES O=C1Nc2ccc(Cl)cc2C(c2ccccc2Cl)=NC1O
REMARK SMILES IDX 1 1 2 2 3 3 4 4 5 5 6 6 7 7 8 8 9 9 10 10 11 11 19 12 20 13
REMARK SMILES IDX 21 15 12 17 13 18 17 19 14 20 16 21 15 22 18 23
REMARK H PARENT 3 14 21 16
ROOT
ATOM      1  O   UNL     1     121.590 161.747 106.740  1.00  0.00    -0.269 OA
ATOM      2  C   UNL     1     121.203 160.658 107.173  1.00  0.00     0.276 C 
ATOM      3  N   UNL     1     120.236 159.975 106.480  1.00  0.00    -0.321 N 
ATOM      4  C   UNL     1     119.663 158.737 106.806  1.00  0.00     0.050 A 
ATOM      5  C   UNL     1     119.131 158.008 105.731  1.00  0.00     0.028 A 
ATOM      6  C   UNL     1     118.588 156.737 105.928  1.00  0.00     0.023 A 
ATOM      7  C   UNL     1     118.561 156.192 107.206  1.00  0.00     0.041 A 
ATOM      8  Cl  UNL     1     117.899 154.623 107.451  1.00  0.00    -0.084 Cl
ATOM      9  C   UNL     1     119.043 156.918 108.292  1.00  0.00     0.033 A 
ATOM     10  C   UNL     1     119.577 158.204 108.104  1.00  0.00     0.026 A 
ATOM     11  C   UNL     1     119.886 159.021 109.317  1.00  0.00     0.079 C 
ATOM     12  N   UNL     1     120.862 159.847 109.458  1.00  0.00    -0.243 NA
ATOM     13  C   UNL     1     121.851 159.974 108.398  1.00  0.00     0.323 C 
ATOM     14  H   UNL     1     120.017 160.400 105.588  1.00  0.00     0.170 HD
ENDROOT
BRANCH  13  15
ATOM     15  O   UNL     1     122.534 158.779 108.046  1.00  0.00    -0.364 OA
ATOM     16  H   UNL     1     122.828 158.906 107.129  1.00  0.00     0.213 HD
ENDBRANCH  13  15
BRANCH  11  17
ATOM     17  C   UNL     1     118.937 158.931 110.458  1.00  0.00     0.019 A 
ATOM     18  C   UNL     1     118.662 157.660 110.981  1.00  0.00     0.012 A 
ATOM     19  C   UNL     1     118.311 160.064 110.990  1.00  0.00     0.050 A 
ATOM     20  C   UNL     1     117.768 157.525 112.042  1.00  0.00     0.001 A 
ATOM     21  C   UNL     1     117.417 159.919 112.054  1.00  0.00     0.021 A 
ATOM     22  C   UNL     1     117.146 158.653 112.577  1.00  0.00     0.002 A 
ATOM     23  Cl  UNL     1     118.643 161.660 110.422  1.00  0.00    -0.084 Cl
ENDBRANCH  11  17
TORSDOF 2
ENDMDL
MODEL 4
REMARK VINA RESULT:    -7.555      2.657      4.978
REMARK INTER + INTRA:          -8.548
REMARK INTER:                  -8.166
REMARK INTRA:                  -0.381
REMARK UNBOUND:                -0.330
REMARK SMILES O=C1Nc2ccc(Cl)cc2C(c2ccccc2Cl)=NC1O
REMARK SMILES IDX 1 1 2 2 3 3 4 4 5 5 6 6 7 7 8 8 9 9 10 10 11 11 19 12 20 13
REMARK SMILES IDX 21 15 12 17 13 18 17 19 14 20 16 21 15 22 18 23
REMARK H PARENT 3 14 21 16
ROOT
ATOM      1  O   UNL     1     119.090 155.704 108.068  1.00  0.00    -0.269 OA
ATOM      2  C   UNL     1     118.363 156.367 108.814  1.00  0.00     0.276 C 
ATOM      3  N   UNL     1     118.884 157.476 109.432  1.00  0.00    -0.321 N 
ATOM      4  C   UNL     1     118.231 158.350 110.312  1.00  0.00     0.050 A 
ATOM      5  C   UNL     1     118.756 159.650 110.384  1.00  0.00     0.028 A 
ATOM      6  C   UNL     1     118.152 160.623 111.182  1.00  0.00     0.023 A 
ATOM      7  C   UNL     1     117.025 160.298 111.927  1.00  0.00     0.041 A 
ATOM      8  Cl  UNL     1     116.273 161.495 112.906  1.00  0.00    -0.084 Cl
ATOM      9  C   UNL     1     116.515 159.002 111.905  1.00  0.00     0.033 A 
ATOM     10  C   UNL     1     117.127 158.013 111.115  1.00  0.00     0.026 A 
ATOM     11  C   UNL     1     116.676 156.599 111.285  1.00  0.00     0.079 C 
ATOM     12  N   UNL     1     116.588 155.704 110.364  1.00  0.00    -0.243 NA
ATOM     13  C   UNL     1     116.856 156.072 108.982  1.00  0.00     0.323 C 
ATOM     14  H   UNL     1     119.815 157.706 109.108  1.00  0.00     0.170 HD
ENDROOT
BRANCH  13  15
ATOM     15  O   UNL     1     116.044 157.112 108.452  1.00  0.00    -0.364 OA
ATOM     16  H   UNL     1     116.636 157.872 108.334  1.00  0.00     0.213 HD
ENDBRANCH  13  15
BRANCH  11  17
ATOM     17  C   UNL     1     116.358 156.147 112.665  1.00  0.00     0.019 A 
ATOM     18  C   UNL     1     115.074 155.639 112.908  1.00  0.00     0.012 A 
ATOM     19  C   UNL     1     117.289 156.239 113.706  1.00  0.00     0.050 A 
ATOM     20  C   UNL     1     114.726 155.217 114.190  1.00  0.00     0.001 A 
ATOM     21  C   UNL     1     116.931 155.812 114.988  1.00  0.00     0.021 A 
ATOM     22  C   UNL     1     115.653 155.303 115.228  1.00  0.00     0.002 A 
ATOM     23  Cl  UNL     1     118.900 156.809 113.462  1.00  0.00    -0.084 Cl
ENDBRANCH  11  17
TORSDOF 2
ENDMDL
MODEL 5
REMARK VINA RESULT:    -7.320      1.618      2.147
REMARK INTER + INTRA:          -8.291
REMARK INTER:                  -7.870
REMARK INTRA:                  -0.421
REMARK UNBOUND:                -0.330
REMARK SMILES O=C1Nc2ccc(Cl)cc2C(c2ccccc2Cl)=NC1O
REMARK SMILES IDX 1 1 2 2 3 3 4 4 5 5 6 6 7 7 8 8 9 9 10 10 11 11 19 12 20 13
REMARK SMILES IDX 21 15 12 17 13 18 17 19 14 20 16 21 15 22 18 23
REMARK H PARENT 3 14 21 16
ROOT
ATOM      1  O   UNL     1     115.050 155.090 115.378  1.00  0.00    -0.269 OA
ATOM      2  C   UNL     1     115.602 156.093 114.919  1.00  0.00     0.276 C 
ATOM      3  N   UNL     1     114.831 157.172 114.567  1.00  0.00    -0.321 N 
ATOM      4  C   UNL     1     115.262 158.392 114.027  1.00  0.00     0.050 A 
ATOM      5  C   UNL     1     114.416 159.490 114.249  1.00  0.00     0.028 A 
ATOM      6  C   UNL     1     114.771 160.767 113.810  1.00  0.00     0.023 A 
ATOM      7  C   UNL     1     115.970 160.951 113.132  1.00  0.00     0.041 A 
ATOM      8  Cl  UNL     1     116.414 162.523 112.595  1.00  0.00    -0.084 Cl
ATOM      9  C   UNL     1     116.801 159.867 112.862  1.00  0.00     0.033 A 
ATOM     10  C   UNL     1     116.443 158.576 113.288  1.00  0.00     0.026 A 
ATOM     11  C   UNL     1     117.256 157.423 112.796  1.00  0.00     0.079 C 
ATOM     12  N   UNL     1     117.544 156.352 113.449  1.00  0.00    -0.243 NA
ATOM     13  C   UNL     1     117.140 156.233 114.843  1.00  0.00     0.323 C 
ATOM     14  H   UNL     1     113.861 157.067 114.838  1.00  0.00     0.170 HD
ENDROOT
BRANCH  13  15
ATOM     15  O   UNL     1     117.631 157.243 115.715  1.00  0.00    -0.364 OA
ATOM     16  H   UNL     1     117.454 158.085 115.265  1.00  0.00     0.213 HD
ENDBRANCH  13  15
BRANCH  11  17
ATOM     17  C   UNL     1     117.730 157.475 111.388  1.00  0.00     0.019 A 
ATOM     18  C   UNL     1     118.956 158.107 111.134  1.00  0.00     0.012 A 
ATOM     19  C   UNL     1     116.981 156.938 110.336  1.00  0.00     0.050 A 
ATOM     20  C   UNL     1     119.433 158.193 109.827  1.00  0.00     0.001 A 
ATOM     21  C   UNL     1     117.468 157.028 109.029  1.00  0.00     0.021 A 
ATOM     22  C   UNL     1     118.691 157.655 108.776  1.00  0.00     0.002 A 
ATOM     23  Cl  UNL     1     115.490 156.106 110.589  1.00  0.00    -0.084 Cl
ENDBRANCH  11  17
TORSDOF 2
ENDMDL
MODEL 6
REMARK VINA RESULT:    -7.007      3.328      4.844
REMARK INTER + INTRA:          -7.951
REMARK INTER:                  -7.490
REMARK INTRA:                  -0.462
REMARK UNBOUND:                -0.330
REMARK SMILES O=C1Nc2ccc(Cl)cc2C(c2ccccc2Cl)=NC1O
REMARK SMILES IDX 1 1 2 2 3 3 4 4 5 5 6 6 7 7 8 8 9 9 10 10 11 11 19 12 20 13
REMARK SMILES IDX 21 15 12 17 13 18 17 19 14 20 16 21 15 22 18 23
REMARK H PARENT 3 14 21 16
ROOT
ATOM      1  O   UNL     1     112.545 155.037 114.644  1.00  0.00    -0.269 OA
ATOM      2  C   UNL     1     113.682 155.462 114.863  1.00  0.00     0.276 C 
ATOM      3  N   UNL     1     113.851 156.454 115.796  1.00  0.00    -0.321 N 
ATOM      4  C   UNL     1     115.050 157.070 116.181  1.00  0.00     0.050 A 
ATOM      5  C   UNL     1     115.062 157.631 117.468  1.00  0.00     0.028 A 
ATOM      6  C   UNL     1     116.220 158.219 117.981  1.00  0.00     0.023 A 
ATOM      7  C   UNL     1     117.371 158.262 117.205  1.00  0.00     0.041 A 
ATOM      8  Cl  UNL     1     118.801 158.978 117.836  1.00  0.00    -0.084 Cl
ATOM      9  C   UNL     1     117.366 157.751 115.909  1.00  0.00     0.033 A 
ATOM     10  C   UNL     1     116.200 157.172 115.379  1.00  0.00     0.026 A 
ATOM     11  C   UNL     1     116.183 156.831 113.925  1.00  0.00     0.079 C 
ATOM     12  N   UNL     1     115.595 155.825 113.378  1.00  0.00    -0.243 NA
ATOM     13  C   UNL     1     114.940 154.835 114.221  1.00  0.00     0.323 C 
ATOM     14  H   UNL     1     113.003 156.661 116.308  1.00  0.00     0.170 HD
ENDROOT
BRANCH  13  15
ATOM     15  O   UNL     1     115.771 154.196 115.181  1.00  0.00    -0.364 OA
ATOM     16  H   UNL     1     115.489 153.267 115.194  1.00  0.00     0.213 HD
ENDBRANCH  13  15
BRANCH  11  17
ATOM     17  C   UNL     1     116.852 157.779 112.995  1.00  0.00     0.019 A 
ATOM     18  C   UNL     1     117.922 157.298 112.228  1.00  0.00     0.012 A 
ATOM     19  C   UNL     1     116.455 159.117 112.893  1.00  0.00     0.050 A 
ATOM     20  C   UNL     1     118.588 158.154 111.353  1.00  0.00     0.001 A 
ATOM     21  C   UNL     1     117.129 159.968 112.013  1.00  0.00     0.021 A 
ATOM     22  C   UNL     1     118.193 159.488 111.246  1.00  0.00     0.002 A 
ATOM     23  Cl  UNL     1     115.117 159.758 113.774  1.00  0.00    -0.084 Cl
ENDBRANCH  11  17
TORSDOF 2
ENDMDL
MODEL 7
REMARK VINA RESULT:    -6.790      4.050      5.413
REMARK INTER + INTRA:          -7.715
REMARK INTER:                  -7.124
REMARK INTRA:                  -0.590
REMARK UNBOUND:                -0.330
REMARK SMILES O=C1Nc2ccc(Cl)cc2C(c2ccccc2Cl)=NC1O
REMARK SMILES IDX 1 1 2 2 3 3 4 4 5 5 6 6 7 7 8 8 9 9 10 10 11 11 19 12 20 13
REMARK SMILES IDX 21 15 12 17 13 18 17 19 14 20 16 21 15 22 18 23
REMARK H PARENT 3 14 21 16
ROOT
ATOM      1  O   UNL     1     116.903 156.956 119.247  1.00  0.00    -0.269 OA
ATOM      2  C   UNL     1     116.438 157.564 118.279  1.00  0.00     0.276 C 
ATOM      3  N   UNL     1     115.107 157.415 117.980  1.00  0.00    -0.321 N 
ATOM      4  C   UNL     1     114.395 158.009 116.928  1.00  0.00     0.050 A 
ATOM      5  C   UNL     1     113.013 158.150 117.128  1.00  0.00     0.028 A 
ATOM      6  C   UNL     1     112.212 158.780 116.174  1.00  0.00     0.023 A 
ATOM      7  C   UNL     1     112.787 159.263 115.005  1.00  0.00     0.041 A 
ATOM      8  Cl  UNL     1     111.805 160.047 113.831  1.00  0.00    -0.084 Cl
ATOM      9  C   UNL     1     114.149 159.093 114.767  1.00  0.00     0.033 A 
ATOM     10  C   UNL     1     114.959 158.446 115.716  1.00  0.00     0.026 A 
ATOM     11  C   UNL     1     116.361 158.104 115.327  1.00  0.00     0.079 C 
ATOM     12  N   UNL     1     117.395 158.114 116.093  1.00  0.00    -0.243 NA
ATOM     13  C   UNL     1     117.265 158.584 117.464  1.00  0.00     0.323 C 
ATOM     14  H   UNL     1     114.602 156.890 118.682  1.00  0.00     0.170 HD
ENDROOT
BRANCH  13  15
ATOM     15  O   UNL     1     116.780 159.912 117.617  1.00  0.00    -0.364 OA
ATOM     16  H   UNL     1     116.226 160.079 116.838  1.00  0.00     0.213 HD
ENDBRANCH  13  15
BRANCH  11  17
ATOM     17  C   UNL     1     116.586 157.636 113.934  1.00  0.00     0.019 A 
ATOM     18  C   UNL     1     117.090 158.560 113.008  1.00  0.00     0.012 A 
ATOM     19  C   UNL     1     116.287 156.328 113.536  1.00  0.00     0.050 A 
ATOM     20  C   UNL     1     117.304 158.170 111.687  1.00  0.00     0.001 A 
ATOM     21  C   UNL     1     116.505 155.947 112.210  1.00  0.00     0.021 A 
ATOM     22  C   UNL     1     117.012 156.866 111.288  1.00  0.00     0.002 A 
ATOM     23  Cl  UNL     1     115.709 155.132 114.638  1.00  0.00    -0.084 Cl
ENDBRANCH  11  17
TORSDOF 2
ENDMDL
MODEL 8
REMARK VINA RESULT:    -6.692      4.343      6.615
REMARK INTER + INTRA:          -7.608
REMARK INTER:                  -7.101
REMARK INTRA:                  -0.507
REMARK UNBOUND:                -0.330
REMARK SMILES O=C1Nc2ccc(Cl)cc2C(c2ccccc2Cl)=NC1O
REMARK SMILES IDX 1 1 2 2 3 3 4 4 5 5 6 6 7 7 8 8 9 9 10 10 11 11 19 12 20 13
REMARK SMILES IDX 21 15 12 17 13 18 17 19 14 20 16 21 15 22 18 23
REMARK H PARENT 3 14 21 16
ROOT
ATOM      1  O   UNL     1     114.068 160.029 118.238  1.00  0.00    -0.269 OA
ATOM      2  C   UNL     1     114.334 158.909 117.792  1.00  0.00     0.276 C 
ATOM      3  N   UNL     1     115.380 158.209 118.339  1.00  0.00    -0.321 N 
ATOM      4  C   UNL     1     115.842 156.937 117.973  1.00  0.00     0.050 A 
ATOM      5  C   UNL     1     116.525 156.225 118.972  1.00  0.00     0.028 A 
ATOM      6  C   UNL     1     116.978 154.925 118.740  1.00  0.00     0.023 A 
ATOM      7  C   UNL     1     116.764 154.333 117.502  1.00  0.00     0.041 A 
ATOM      8  Cl  UNL     1     117.315 152.729 117.215  1.00  0.00    -0.084 Cl
ATOM      9  C   UNL     1     116.130 155.039 116.484  1.00  0.00     0.033 A 
ATOM     10  C   UNL     1     115.683 156.354 116.704  1.00  0.00     0.026 A 
ATOM     11  C   UNL     1     115.201 157.139 115.528  1.00  0.00     0.079 C 
ATOM     12  N   UNL     1     114.246 158.001 115.519  1.00  0.00    -0.243 NA
ATOM     13  C   UNL     1     113.460 158.210 116.726  1.00  0.00     0.323 C 
ATOM     14  H   UNL     1     115.766 158.657 119.160  1.00  0.00     0.170 HD
ENDROOT
BRANCH  13  15
ATOM     15  O   UNL     1     112.804 157.059 117.242  1.00  0.00    -0.364 OA
ATOM     16  H   UNL     1     113.247 156.299 116.830  1.00  0.00     0.213 HD
ENDBRANCH  13  15
BRANCH  11  17
ATOM     17  C   UNL     1     115.935 156.966 114.246  1.00  0.00     0.019 A 
ATOM     18  C   UNL     1     117.042 157.794 114.010  1.00  0.00     0.012 A 
ATOM     19  C   UNL     1     115.535 156.030 113.286  1.00  0.00     0.050 A 
ATOM     20  C   UNL     1     117.752 157.677 112.816  1.00  0.00     0.001 A 
ATOM     21  C   UNL     1     116.253 155.921 112.093  1.00  0.00     0.021 A 
ATOM     22  C   UNL     1     117.358 156.742 111.858  1.00  0.00     0.002 A 
ATOM     23  Cl  UNL     1     114.211 154.951 113.537  1.00  0.00    -0.084 Cl
ENDBRANCH  11  17
TORSDOF 2
ENDMDL
MODEL 9
REMARK VINA RESULT:    -6.482      4.445      5.849
REMARK INTER + INTRA:          -7.380
REMARK INTER:                  -6.780
REMARK INTRA:                  -0.600
REMARK UNBOUND:                -0.330
REMARK SMILES O=C1Nc2ccc(Cl)cc2C(c2ccccc2Cl)=NC1O
REMARK SMILES IDX 1 1 2 2 3 3 4 4 5 5 6 6 7 7 8 8 9 9 10 10 11 11 19 12 20 13
REMARK SMILES IDX 21 15 12 17 13 18 17 19 14 20 16 21 15 22 18 23
REMARK H PARENT 3 14 21 16
ROOT
ATOM      1  O   UNL     1     114.839 155.175 119.932  1.00  0.00    -0.269 OA
ATOM      2  C   UNL     1     115.206 156.053 119.147  1.00  0.00     0.276 C 
ATOM      3  N   UNL     1     114.294 156.985 118.720  1.00  0.00    -0.321 N 
ATOM      4  C   UNL     1     114.509 158.049 117.832  1.00  0.00     0.050 A 
ATOM      5  C   UNL     1     113.635 159.139 117.962  1.00  0.00     0.028 A 
ATOM      6  C   UNL     1     113.791 160.279 117.172  1.00  0.00     0.023 A 
ATOM      7  C   UNL     1     114.815 160.330 116.234  1.00  0.00     0.041 A 
ATOM      8  Cl  UNL     1     115.015 161.736 115.264  1.00  0.00    -0.084 Cl
ATOM      9  C   UNL     1     115.665 159.241 116.059  1.00  0.00     0.033 A 
ATOM     10  C   UNL     1     115.505 158.084 116.840  1.00  0.00     0.026 A 
ATOM     11  C   UNL     1     116.299 156.873 116.474  1.00  0.00     0.079 C 
ATOM     12  N   UNL     1     116.796 156.006 117.285  1.00  0.00    -0.243 NA
ATOM     13  C   UNL     1     116.682 156.220 118.720  1.00  0.00     0.323 C 
ATOM     14  H   UNL     1     113.408 156.918 119.205  1.00  0.00     0.170 HD
ENDROOT
BRANCH  13  15
ATOM     15  O   UNL     1     117.248 157.429 119.209  1.00  0.00    -0.364 OA
ATOM     16  H   UNL     1     116.575 157.815 119.793  1.00  0.00     0.213 HD
ENDBRANCH  13  15
BRANCH  11  17
ATOM     17  C   UNL     1     116.485 156.592 115.025  1.00  0.00     0.019 A 
ATOM     18  C   UNL     1     117.728 156.896 114.455  1.00  0.00     0.012 A 
ATOM     19  C   UNL     1     115.455 156.065 114.238  1.00  0.00     0.050 A 
ATOM     20  C   UNL     1     117.943 156.663 113.097  1.00  0.00     0.001 A 
ATOM     21  C   UNL     1     115.680 155.835 112.878  1.00  0.00     0.021 A 
ATOM     22  C   UNL     1     116.921 156.134 112.309  1.00  0.00     0.002 A 
ATOM     23  Cl  UNL     1     113.919 155.627 114.890  1.00  0.00    -0.084 Cl
ENDBRANCH  11  17
TORSDOF 2
ENDMDL
