MODEL 1
REMARK VINA RESULT:   -10.731      0.000      0.000
REMARK INTER + INTRA:         -11.158
REMARK INTER:                 -11.359
REMARK INTRA:                   0.200
REMARK UNBOUND:                 0.200
REMARK SMILES Cc1ncc2n1-c1ccc(Cl)cc1C(c1ccccc1F)=NC2
REMARK SMILES IDX 1 1 2 2 3 3 4 4 5 5 6 6 7 7 8 8 9 9 10 10 11 11 12 12 13 13
REMARK SMILES IDX 14 14 22 15 23 16 15 17 16 18 20 19 17 20 19 21 18 22 21 23
REMARK H PARENT
ROOT
ATOM      1  C   UNL     1     116.682 161.318 111.777  1.00  0.00     0.088 C 
ATOM      2  C   UNL     1     116.894 159.983 112.395  1.00  0.00     0.110 A 
ATOM      3  N   UNL     1     116.274 159.590 113.493  1.00  0.00    -0.241 NA
ATOM      4  C   UNL     1     116.592 158.275 113.652  1.00  0.00     0.137 A 
ATOM      5  C   UNL     1     117.441 157.854 112.658  1.00  0.00     0.064 A 
ATOM      6  N   UNL     1     117.664 158.954 111.857  1.00  0.00    -0.298 N 
ATOM      7  C   UNL     1     118.555 158.980 110.748  1.00  0.00     0.057 A 
ATOM      8  C   UNL     1     119.300 160.143 110.493  1.00  0.00     0.029 A 
ATOM      9  C   UNL     1     120.221 160.179 109.444  1.00  0.00     0.023 A 
ATOM     10  C   UNL     1     120.413 159.053 108.651  1.00  0.00     0.041 A 
ATOM     11  Cl  UNL     1     121.556 159.098 107.367  1.00  0.00    -0.084 Cl
ATOM     12  C   UNL     1     119.687 157.890 108.892  1.00  0.00     0.033 A 
ATOM     13  C   UNL     1     118.747 157.843 109.936  1.00  0.00     0.026 A 
ATOM     14  C   UNL     1     117.932 156.591 110.065  1.00  0.00     0.077 C 
ATOM     15  N   UNL     1     117.622 156.002 111.169  1.00  0.00    -0.278 NA
ATOM     16  C   UNL     1     118.091 156.550 112.428  1.00  0.00     0.198 C 
ENDROOT
BRANCH  14  17
ATOM     17  C   UNL     1     117.404 155.986 108.816  1.00  0.00     0.036 A 
ATOM     18  C   UNL     1     118.290 155.598 107.804  1.00  0.00     0.013 A 
ATOM     19  C   UNL     1     116.031 155.819 108.646  1.00  0.00     0.132 A 
ATOM     20  C   UNL     1     117.789 155.036 106.629  1.00  0.00     0.001 A 
ATOM     21  C   UNL     1     115.532 155.257 107.475  1.00  0.00     0.040 A 
ATOM     22  C   UNL     1     116.412 154.865 106.465  1.00  0.00     0.003 A 
ATOM     23  F   UNL     1     115.170 156.148 109.621  1.00  0.00    -0.206 F 
ENDBRANCH  14  17
TORSDOF 1
ENDMDL
MODEL 2
REMARK VINA RESULT:   -10.075      2.957      6.232
REMARK INTER + INTRA:         -10.464
REMARK INTER:                 -11.289
REMARK INTRA:                   0.826
REMARK UNBOUND:                 0.200
REMARK SMILES Cc1ncc2n1-c1ccc(Cl)cc1C(c1ccccc1F)=NC2
REMARK SMILES IDX 1 1 2 2 3 3 4 4 5 5 6 6 7 7 8 8 9 9 10 10 11 11 12 12 13 13
REMARK SMILES IDX 14 14 22 15 23 16 15 17 16 18 20 19 17 20 19 21 18 22 21 23
REMARK H PARENT
ROOT
ATOM      1  C   UNL     1     116.676 155.985 107.151  1.00  0.00     0.088 C 
ATOM      2  C   UNL     1     117.905 156.821 107.183  1.00  0.00     0.110 A 
ATOM      3  N   UNL     1     118.505 157.264 106.094  1.00  0.00    -0.241 NA
ATOM      4  C   UNL     1     119.478 158.117 106.522  1.00  0.00     0.137 A 
ATOM      5  C   UNL     1     119.500 158.181 107.894  1.00  0.00     0.064 A 
ATOM      6  N   UNL     1     118.509 157.328 108.331  1.00  0.00    -0.298 N 
ATOM      7  C   UNL     1     118.241 157.033 109.697  1.00  0.00     0.057 A 
ATOM      8  C   UNL     1     117.854 155.731 110.054  1.00  0.00     0.029 A 
ATOM      9  C   UNL     1     117.637 155.398 111.393  1.00  0.00     0.023 A 
ATOM     10  C   UNL     1     117.816 156.357 112.383  1.00  0.00     0.041 A 
ATOM     11  Cl  UNL     1     117.558 155.940 114.032  1.00  0.00    -0.084 Cl
ATOM     12  C   UNL     1     118.204 157.651 112.049  1.00  0.00     0.033 A 
ATOM     13  C   UNL     1     118.413 158.005 110.704  1.00  0.00     0.026 A 
ATOM     14  C   UNL     1     118.728 159.443 110.418  1.00  0.00     0.077 C 
ATOM     15  N   UNL     1     119.601 159.871 109.571  1.00  0.00    -0.278 NA
ATOM     16  C   UNL     1     120.389 158.917 108.813  1.00  0.00     0.198 C 
ENDROOT
BRANCH  14  17
ATOM     17  C   UNL     1     117.945 160.473 111.147  1.00  0.00     0.036 A 
ATOM     18  C   UNL     1     116.905 160.081 111.997  1.00  0.00     0.013 A 
ATOM     19  C   UNL     1     118.237 161.825 110.973  1.00  0.00     0.132 A 
ATOM     20  C   UNL     1     116.168 161.054 112.675  1.00  0.00     0.001 A 
ATOM     21  C   UNL     1     117.503 162.794 111.651  1.00  0.00     0.040 A 
ATOM     22  C   UNL     1     116.467 162.408 112.503  1.00  0.00     0.003 A 
ATOM     23  F   UNL     1     119.256 162.216 110.193  1.00  0.00    -0.206 F 
ENDBRANCH  14  17
TORSDOF 1
ENDMDL
MODEL 3
REMARK VINA RESULT:    -9.675      2.371      3.659
REMARK INTER + INTRA:         -10.040
REMARK INTER:                  -9.542
REMARK INTRA:                  -0.499
REMARK UNBOUND:                 0.200
REMARK SMILES Cc1ncc2n1-c1ccc(Cl)cc1C(c1ccccc1F)=NC2
REMARK SMILES IDX 1 1 2 2 3 3 4 4 5 5 6 6 7 7 8 8 9 9 10 10 11 11 12 12 13 13
REMARK SMILES IDX 14 14 22 15 23 16 15 17 16 18 20 19 17 20 19 21 18 22 21 23
REMARK H PARENT
ROOT
ATOM      1  C   UNL     1     113.364 158.643 114.611  1.00  0.00     0.088 C 
ATOM      2  C   UNL     1     114.557 157.774 114.793  1.00  0.00     0.110 A 
ATOM      3  N   UNL     1     114.550 156.690 115.547  1.00  0.00    -0.241 NA
ATOM      4  C   UNL     1     115.749 156.079 115.335  1.00  0.00     0.137 A 
ATOM      5  C   UNL     1     116.520 156.808 114.461  1.00  0.00     0.064 A 
ATOM      6  N   UNL     1     115.772 157.917 114.128  1.00  0.00    -0.298 N 
ATOM      7  C   UNL     1     116.229 158.982 113.302  1.00  0.00     0.057 A 
ATOM      8  C   UNL     1     115.840 160.298 113.602  1.00  0.00     0.029 A 
ATOM      9  C   UNL     1     116.315 161.369 112.842  1.00  0.00     0.023 A 
ATOM     10  C   UNL     1     117.190 161.135 111.787  1.00  0.00     0.041 A 
ATOM     11  Cl  UNL     1     117.782 162.457 110.860  1.00  0.00    -0.084 Cl
ATOM     12  C   UNL     1     117.591 159.838 111.478  1.00  0.00     0.033 A 
ATOM     13  C   UNL     1     117.109 158.749 112.226  1.00  0.00     0.026 A 
ATOM     14  C   UNL     1     117.505 157.377 111.766  1.00  0.00     0.077 C 
ATOM     15  N   UNL     1     117.850 156.396 112.527  1.00  0.00    -0.278 NA
ATOM     16  C   UNL     1     117.892 156.587 113.965  1.00  0.00     0.198 C 
ENDROOT
BRANCH  14  17
ATOM     17  C   UNL     1     117.467 157.108 110.307  1.00  0.00     0.036 A 
ATOM     18  C   UNL     1     116.294 156.619 109.721  1.00  0.00     0.013 A 
ATOM     19  C   UNL     1     118.601 157.328 109.526  1.00  0.00     0.132 A 
ATOM     20  C   UNL     1     116.265 156.361 108.349  1.00  0.00     0.001 A 
ATOM     21  C   UNL     1     118.571 157.072 108.158  1.00  0.00     0.040 A 
ATOM     22  C   UNL     1     117.402 156.588 107.569  1.00  0.00     0.003 A 
ATOM     23  F   UNL     1     119.721 157.833 110.062  1.00  0.00    -0.206 F 
ENDBRANCH  14  17
TORSDOF 1
ENDMDL
MODEL 4
REMARK VINA RESULT:    -9.386      2.295      3.336
REMARK INTER + INTRA:          -9.735
REMARK INTER:                  -9.106
REMARK INTRA:                  -0.629
REMARK UNBOUND:                 0.200
REMARK SMILES Cc1ncc2n1-c1ccc(Cl)cc1C(c1ccccc1F)=NC2
REMARK SMILES IDX 1 1 2 2 3 3 4 4 5 5 6 6 7 7 8 8 9 9 10 10 11 11 12 12 13 13
REMARK SMILES IDX 14 14 22 15 23 16 15 17 16 18 20 19 17 20 19 21 18 22 21 23
REMARK H PARENT
ROOT
ATOM      1  C   UNL     1     113.601 157.395 114.618  1.00  0.00     0.088 C 
ATOM      2  C   UNL     1     114.702 156.395 114.643  1.00  0.00     0.110 A 
ATOM      3  N   UNL     1     114.625 155.255 115.304  1.00  0.00    -0.241 NA
ATOM      4  C   UNL     1     115.735 154.546 114.957  1.00  0.00     0.137 A 
ATOM      5  C   UNL     1     116.524 155.266 114.093  1.00  0.00     0.064 A 
ATOM      6  N   UNL     1     115.881 156.471 113.905  1.00  0.00    -0.298 N 
ATOM      7  C   UNL     1     116.397 157.553 113.139  1.00  0.00     0.057 A 
ATOM      8  C   UNL     1     116.173 158.870 113.572  1.00  0.00     0.029 A 
ATOM      9  C   UNL     1     116.713 159.949 112.870  1.00  0.00     0.023 A 
ATOM     10  C   UNL     1     117.489 159.722 111.740  1.00  0.00     0.041 A 
ATOM     11  Cl  UNL     1     118.162 161.053 110.883  1.00  0.00    -0.084 Cl
ATOM     12  C   UNL     1     117.727 158.424 111.297  1.00  0.00     0.033 A 
ATOM     13  C   UNL     1     117.178 157.327 111.986  1.00  0.00     0.026 A 
ATOM     14  C   UNL     1     117.393 155.969 111.389  1.00  0.00     0.077 C 
ATOM     15  N   UNL     1     117.677 154.893 112.040  1.00  0.00    -0.278 NA
ATOM     16  C   UNL     1     117.830 154.950 113.483  1.00  0.00     0.198 C 
ENDROOT
BRANCH  14  17
ATOM     17  C   UNL     1     117.234 155.835 109.919  1.00  0.00     0.036 A 
ATOM     18  C   UNL     1     118.367 155.700 109.107  1.00  0.00     0.013 A 
ATOM     19  C   UNL     1     115.963 155.858 109.348  1.00  0.00     0.132 A 
ATOM     20  C   UNL     1     118.213 155.581 107.725  1.00  0.00     0.001 A 
ATOM     21  C   UNL     1     115.810 155.737 107.970  1.00  0.00     0.040 A 
ATOM     22  C   UNL     1     116.936 155.599 107.157  1.00  0.00     0.003 A 
ATOM     23  F   UNL     1     114.865 155.946 110.113  1.00  0.00    -0.206 F 
ENDBRANCH  14  17
TORSDOF 1
ENDMDL
MODEL 5
REMARK VINA RESULT:    -8.300      2.675      4.395
REMARK INTER + INTRA:          -8.584
REMARK INTER:                  -8.432
REMARK INTRA:                  -0.152
REMARK UNBOUND:                 0.200
REMARK SMILES Cc1ncc2n1-c1ccc(Cl)cc1C(c1ccccc1F)=NC2
REMARK SMILES IDX 1 1 2 2 3 3 4 4 5 5 6 6 7 7 8 8 9 9 10 10 11 11 12 12 13 13
REMARK SMILES IDX 14 14 22 15 23 16 15 17 16 18 20 19 17 20 19 21 18 22 21 23
REMARK H PARENT
ROOT
ATOM      1  C   UNL     1     112.233 159.233 114.519  1.00  0.00     0.088 C 
ATOM      2  C   UNL     1     113.372 158.527 115.165  1.00  0.00     0.110 A 
ATOM      3  N   UNL     1     113.213 157.597 116.088  1.00  0.00    -0.241 NA
ATOM      4  C   UNL     1     114.452 157.076 116.311  1.00  0.00     0.137 A 
ATOM      5  C   UNL     1     115.394 157.709 115.538  1.00  0.00     0.064 A 
ATOM      6  N   UNL     1     114.713 158.665 114.815  1.00  0.00    -0.298 N 
ATOM      7  C   UNL     1     115.325 159.607 113.941  1.00  0.00     0.057 A 
ATOM      8  C   UNL     1     114.810 160.911 113.869  1.00  0.00     0.029 A 
ATOM      9  C   UNL     1     115.423 161.872 113.062  1.00  0.00     0.023 A 
ATOM     10  C   UNL     1     116.557 161.541 112.330  1.00  0.00     0.041 A 
ATOM     11  Cl  UNL     1     117.315 162.729 111.344  1.00  0.00    -0.084 Cl
ATOM     12  C   UNL     1     117.085 160.254 112.392  1.00  0.00     0.033 A 
ATOM     13  C   UNL     1     116.471 159.272 113.191  1.00  0.00     0.026 A 
ATOM     14  C   UNL     1     117.037 157.885 113.124  1.00  0.00     0.077 C 
ATOM     15  N   UNL     1     117.210 157.091 114.123  1.00  0.00    -0.278 NA
ATOM     16  C   UNL     1     116.857 157.535 115.459  1.00  0.00     0.198 C 
ENDROOT
BRANCH  14  17
ATOM     17  C   UNL     1     117.403 157.360 111.784  1.00  0.00     0.036 A 
ATOM     18  C   UNL     1     118.535 157.858 111.128  1.00  0.00     0.013 A 
ATOM     19  C   UNL     1     116.614 156.385 111.176  1.00  0.00     0.132 A 
ATOM     20  C   UNL     1     118.872 157.366 109.866  1.00  0.00     0.001 A 
ATOM     21  C   UNL     1     116.951 155.893 109.918  1.00  0.00     0.040 A 
ATOM     22  C   UNL     1     118.081 156.384 109.262  1.00  0.00     0.003 A 
ATOM     23  F   UNL     1     115.549 155.868 111.805  1.00  0.00    -0.206 F 
ENDBRANCH  14  17
TORSDOF 1
ENDMDL
MODEL 6
REMARK VINA RESULT:    -7.656      4.081      6.404
REMARK INTER + INTRA:          -7.903
REMARK INTER:                  -7.464
REMARK INTRA:                  -0.439
REMARK UNBOUND:                 0.200
REMARK SMILES Cc1ncc2n1-c1ccc(Cl)cc1C(c1ccccc1F)=NC2
REMARK SMILES IDX 1 1 2 2 3 3 4 4 5 5 6 6 7 7 8 8 9 9 10 10 11 11 12 12 13 13
REMARK SMILES IDX 14 14 22 15 23 16 15 17 16 18 20 19 17 20 19 21 18 22 21 23
REMARK H PARENT
ROOT
ATOM      1  C   UNL     1     118.151 158.970 118.596  1.00  0.00     0.088 C 
ATOM      2  C   UNL     1     116.944 159.394 117.839  1.00  0.00     0.110 A 
ATOM      3  N   UNL     1     116.490 160.634 117.843  1.00  0.00    -0.241 NA
ATOM      4  C   UNL     1     115.489 160.670 116.918  1.00  0.00     0.137 A 
ATOM      5  C   UNL     1     115.302 159.431 116.354  1.00  0.00     0.064 A 
ATOM      6  N   UNL     1     116.216 158.595 116.960  1.00  0.00    -0.298 N 
ATOM      7  C   UNL     1     116.311 157.195 116.726  1.00  0.00     0.057 A 
ATOM      8  C   UNL     1     116.626 156.340 117.795  1.00  0.00     0.029 A 
ATOM      9  C   UNL     1     116.673 154.957 117.607  1.00  0.00     0.023 A 
ATOM     10  C   UNL     1     116.395 154.418 116.356  1.00  0.00     0.041 A 
ATOM     11  Cl  UNL     1     116.443 152.714 116.131  1.00  0.00    -0.084 Cl
ATOM     12  C   UNL     1     116.076 155.249 115.286  1.00  0.00     0.033 A 
ATOM     13  C   UNL     1     116.038 156.644 115.457  1.00  0.00     0.026 A 
ATOM     14  C   UNL     1     115.789 157.475 114.234  1.00  0.00     0.077 C 
ATOM     15  N   UNL     1     115.034 158.517 114.169  1.00  0.00    -0.278 NA
ATOM     16  C   UNL     1     114.324 158.960 115.355  1.00  0.00     0.198 C 
ENDROOT
BRANCH  14  17
ATOM     17  C   UNL     1     116.499 157.088 112.988  1.00  0.00     0.036 A 
ATOM     18  C   UNL     1     117.735 157.670 112.683  1.00  0.00     0.013 A 
ATOM     19  C   UNL     1     115.929 156.159 112.119  1.00  0.00     0.132 A 
ATOM     20  C   UNL     1     118.395 157.308 111.508  1.00  0.00     0.001 A 
ATOM     21  C   UNL     1     116.588 155.798 110.948  1.00  0.00     0.040 A 
ATOM     22  C   UNL     1     117.823 156.373 110.642  1.00  0.00     0.003 A 
ATOM     23  F   UNL     1     114.765 155.562 112.413  1.00  0.00    -0.206 F 
ENDBRANCH  14  17
TORSDOF 1
ENDMDL
MODEL 7
REMARK VINA RESULT:    -7.157      3.620      5.684
REMARK INTER + INTRA:          -7.375
REMARK INTER:                  -8.263
REMARK INTRA:                   0.888
REMARK UNBOUND:                 0.200
REMARK SMILES Cc1ncc2n1-c1ccc(Cl)cc1C(c1ccccc1F)=NC2
REMARK SMILES IDX 1 1 2 2 3 3 4 4 5 5 6 6 7 7 8 8 9 9 10 10 11 11 12 12 13 13
REMARK SMILES IDX 14 14 22 15 23 16 15 17 16 18 20 19 17 20 19 21 18 22 21 23
REMARK H PARENT
ROOT
ATOM      1  C   UNL     1     117.289 158.948 118.034  1.00  0.00     0.088 C 
ATOM      2  C   UNL     1     116.255 159.467 117.101  1.00  0.00     0.110 A 
ATOM      3  N   UNL     1     115.542 160.551 117.346  1.00  0.00    -0.241 NA
ATOM      4  C   UNL     1     114.835 160.800 116.208  1.00  0.00     0.137 A 
ATOM      5  C   UNL     1     115.090 159.843 115.256  1.00  0.00     0.064 A 
ATOM      6  N   UNL     1     115.984 158.963 115.831  1.00  0.00    -0.298 N 
ATOM      7  C   UNL     1     116.455 157.771 115.215  1.00  0.00     0.057 A 
ATOM      8  C   UNL     1     116.671 156.629 116.003  1.00  0.00     0.029 A 
ATOM      9  C   UNL     1     117.082 155.430 115.418  1.00  0.00     0.023 A 
ATOM     10  C   UNL     1     117.269 155.359 114.042  1.00  0.00     0.041 A 
ATOM     11  Cl  UNL     1     117.765 153.878 113.323  1.00  0.00    -0.084 Cl
ATOM     12  C   UNL     1     117.056 156.479 113.243  1.00  0.00     0.033 A 
ATOM     13  C   UNL     1     116.654 157.697 113.820  1.00  0.00     0.026 A 
ATOM     14  C   UNL     1     116.546 158.881 112.908  1.00  0.00     0.077 C 
ATOM     15  N   UNL     1     115.614 159.771 112.932  1.00  0.00    -0.278 NA
ATOM     16  C   UNL     1     114.539 159.654 113.901  1.00  0.00     0.198 C 
ENDROOT
BRANCH  14  17
ATOM     17  C   UNL     1     117.622 159.072 111.903  1.00  0.00     0.036 A 
ATOM     18  C   UNL     1     118.345 157.966 111.441  1.00  0.00     0.013 A 
ATOM     19  C   UNL     1     117.921 160.350 111.432  1.00  0.00     0.132 A 
ATOM     20  C   UNL     1     119.361 158.151 110.502  1.00  0.00     0.001 A 
ATOM     21  C   UNL     1     118.932 160.533 110.494  1.00  0.00     0.040 A 
ATOM     22  C   UNL     1     119.654 159.433 110.028  1.00  0.00     0.003 A 
ATOM     23  F   UNL     1     117.213 161.416 111.833  1.00  0.00    -0.206 F 
ENDBRANCH  14  17
TORSDOF 1
ENDMDL
MODEL 8
REMARK VINA RESULT:    -6.863      4.484      6.346
REMARK INTER + INTRA:          -7.064
REMARK INTER:                  -6.662
REMARK INTRA:                  -0.402
REMARK UNBOUND:                 0.200
REMARK SMILES Cc1ncc2n1-c1ccc(Cl)cc1C(c1ccccc1F)=NC2
REMARK SMILES IDX 1 1 2 2 3 3 4 4 5 5 6 6 7 7 8 8 9 9 10 10 11 11 12 12 13 13
REMARK SMILES IDX 14 14 22 15 23 16 15 17 16 18 20 19 17 20 19 21 18 22 21 23
REMARK H PARENT
ROOT
ATOM      1  C   UNL     1     112.681 160.817 113.627  1.00  0.00     0.088 C 
ATOM      2  C   UNL     1     113.336 160.821 114.962  1.00  0.00     0.110 A 
ATOM      3  N   UNL     1     112.786 161.364 116.033  1.00  0.00    -0.241 NA
ATOM      4  C   UNL     1     113.592 161.027 117.079  1.00  0.00     0.137 A 
ATOM      5  C   UNL     1     114.670 160.292 116.648  1.00  0.00     0.064 A 
ATOM      6  N   UNL     1     114.529 160.177 115.281  1.00  0.00    -0.298 N 
ATOM      7  C   UNL     1     115.476 159.555 114.420  1.00  0.00     0.057 A 
ATOM      8  C   UNL     1     115.703 160.095 113.145  1.00  0.00     0.029 A 
ATOM      9  C   UNL     1     116.664 159.539 112.298  1.00  0.00     0.023 A 
ATOM     10  C   UNL     1     117.413 158.447 112.724  1.00  0.00     0.041 A 
ATOM     11  Cl  UNL     1     118.603 157.770 111.684  1.00  0.00    -0.084 Cl
ATOM     12  C   UNL     1     117.205 157.900 113.988  1.00  0.00     0.033 A 
ATOM     13  C   UNL     1     116.231 158.442 114.845  1.00  0.00     0.026 A 
ATOM     14  C   UNL     1     115.997 157.734 116.146  1.00  0.00     0.077 C 
ATOM     15  N   UNL     1     115.805 158.297 117.289  1.00  0.00    -0.278 NA
ATOM     16  C   UNL     1     115.825 159.745 117.385  1.00  0.00     0.198 C 
ENDROOT
BRANCH  14  17
ATOM     17  C   UNL     1     115.946 156.250 116.117  1.00  0.00     0.036 A 
ATOM     18  C   UNL     1     116.757 155.511 116.987  1.00  0.00     0.013 A 
ATOM     19  C   UNL     1     115.105 155.596 115.218  1.00  0.00     0.132 A 
ATOM     20  C   UNL     1     116.711 154.116 116.951  1.00  0.00     0.001 A 
ATOM     21  C   UNL     1     115.058 154.206 115.185  1.00  0.00     0.040 A 
ATOM     22  C   UNL     1     115.862 153.464 116.053  1.00  0.00     0.003 A 
ATOM     23  F   UNL     1     114.293 156.288 114.405  1.00  0.00    -0.206 F 
ENDBRANCH  14  17
TORSDOF 1
ENDMDL
MODEL 9
REMARK VINA RESULT:    -6.831      4.994      7.266
REMARK INTER + INTRA:          -7.030
REMARK INTER:                  -6.396
REMARK INTRA:                  -0.634
REMARK UNBOUND:                 0.200
REMARK SMILES Cc1ncc2n1-c1ccc(Cl)cc1C(c1ccccc1F)=NC2
REMARK SMILES IDX 1 1 2 2 3 3 4 4 5 5 6 6 7 7 8 8 9 9 10 10 11 11 12 12 13 13
REMARK SMILES IDX 14 14 22 15 23 16 15 17 16 18 20 19 17 20 19 21 18 22 21 23
REMARK H PARENT
ROOT
ATOM      1  C   UNL     1     116.025 165.092 110.801  1.00  0.00     0.088 C 
ATOM      2  C   UNL     1     116.084 165.095 112.286  1.00  0.00     0.110 A 
ATOM      3  N   UNL     1     115.989 166.196 113.009  1.00  0.00    -0.241 NA
ATOM      4  C   UNL     1     115.917 165.787 114.307  1.00  0.00     0.137 A 
ATOM      5  C   UNL     1     115.997 164.419 114.392  1.00  0.00     0.064 A 
ATOM      6  N   UNL     1     116.133 163.964 113.097  1.00  0.00    -0.298 N 
ATOM      7  C   UNL     1     116.330 162.602 112.735  1.00  0.00     0.057 A 
ATOM      8  C   UNL     1     117.175 162.294 111.657  1.00  0.00     0.029 A 
ATOM      9  C   UNL     1     117.430 160.966 111.312  1.00  0.00     0.023 A 
ATOM     10  C   UNL     1     116.853 159.936 112.047  1.00  0.00     0.041 A 
ATOM     11  Cl  UNL     1     117.177 158.301 111.626  1.00  0.00    -0.084 Cl
ATOM     12  C   UNL     1     116.015 160.221 113.121  1.00  0.00     0.033 A 
ATOM     13  C   UNL     1     115.739 161.555 113.472  1.00  0.00     0.026 A 
ATOM     14  C   UNL     1     114.748 161.780 114.574  1.00  0.00     0.077 C 
ATOM     15  N   UNL     1     114.847 162.658 115.513  1.00  0.00    -0.278 NA
ATOM     16  C   UNL     1     116.012 163.521 115.563  1.00  0.00     0.198 C 
ENDROOT
BRANCH  14  17
ATOM     17  C   UNL     1     113.522 160.942 114.573  1.00  0.00     0.036 A 
ATOM     18  C   UNL     1     112.482 161.233 113.682  1.00  0.00     0.013 A 
ATOM     19  C   UNL     1     113.402 159.877 115.465  1.00  0.00     0.132 A 
ATOM     20  C   UNL     1     111.329 160.446 113.690  1.00  0.00     0.001 A 
ATOM     21  C   UNL     1     112.253 159.092 115.470  1.00  0.00     0.040 A 
ATOM     22  C   UNL     1     111.215 159.377 114.581  1.00  0.00     0.003 A 
ATOM     23  F   UNL     1     114.404 159.559 116.298  1.00  0.00    -0.206 F 
ENDBRANCH  14  17
TORSDOF 1
ENDMDL
