MODEL 1
REMARK VINA RESULT:    -6.871      0.000      0.000
REMARK INTER + INTRA:          -8.369
REMARK INTER:                  -7.675
REMARK INTRA:                  -0.694
REMARK UNBOUND:                -0.694
REMARK SMILES O=C1CN=C(c2ccccc2Cl)c2cc([N+](=O)[O-])ccc2N1
REMARK SMILES IDX 1 1 2 2 3 3 4 4 5 5 13 6 14 7 15 8 19 9 20 10 21 11 22 12
REMARK SMILES IDX 6 14 7 15 11 16 8 17 10 18 9 19 12 20 16 21 17 22 18 23
REMARK H PARENT 22 13
ROOT
ATOM      1  O   UNL     1     138.105 101.290 134.059  1.00  0.00    -0.273 OA
ATOM      2  C   UNL     1     139.063 100.517 134.024  1.00  0.00     0.246 C 
ATOM      3  C   UNL     1     140.062 100.496 132.885  1.00  0.00     0.243 C 
ATOM      4  N   UNL     1     140.018  99.217 132.192  1.00  0.00    -0.274 NA
ATOM      5  C   UNL     1     140.447  98.159 132.784  1.00  0.00     0.076 C 
ATOM      6  C   UNL     1     140.944  98.068 134.192  1.00  0.00     0.031 A 
ATOM      7  C   UNL     1     141.985  97.161 134.470  1.00  0.00     0.098 A 
ATOM      8  C   UNL     1     142.364  96.909 135.794  1.00  0.00     0.270 A 
ATOM      9  C   UNL     1     141.707  97.542 136.852  1.00  0.00     0.088 A 
ATOM     10  C   UNL     1     140.684  98.452 136.576  1.00  0.00     0.034 A 
ATOM     11  C   UNL     1     140.318  98.750 135.253  1.00  0.00     0.051 A 
ATOM     12  N   UNL     1     139.313  99.717 135.107  1.00  0.00    -0.324 N 
ATOM     13  H   UNL     1     138.723  99.942 135.898  1.00  0.00     0.170 HD
ENDROOT
BRANCH   5  14
ATOM     14  C   UNL     1     140.381  96.900 131.996  1.00  0.00     0.019 A 
ATOM     15  C   UNL     1     141.316  96.724 130.966  1.00  0.00     0.012 A 
ATOM     16  C   UNL     1     139.438  95.905 132.274  1.00  0.00     0.050 A 
ATOM     17  C   UNL     1     141.297  95.554 130.209  1.00  0.00     0.001 A 
ATOM     18  C   UNL     1     139.426  94.737 131.510  1.00  0.00     0.021 A 
ATOM     19  C   UNL     1     140.353  94.562 130.478  1.00  0.00     0.002 A 
ATOM     20  Cl  UNL     1     138.237  96.089 133.501  1.00  0.00    -0.084 Cl
ENDBRANCH   5  14
BRANCH   8  21
ATOM     21  N   UNL     1     143.444  95.953 136.075  1.00  0.00     0.062 N 
ATOM     22  O   UNL     1     143.148  94.752 136.131  1.00  0.00    -0.258 OA
ATOM     23  O   UNL     1     144.585  96.407 136.232  1.00  0.00    -0.258 OA
ENDBRANCH   8  21
TORSDOF 2
ENDMDL
MODEL 2
REMARK VINA RESULT:    -6.764      2.635      4.679
REMARK INTER + INTRA:          -8.249
REMARK INTER:                  -7.717
REMARK INTRA:                  -0.532
REMARK UNBOUND:                -0.694
REMARK SMILES O=C1CN=C(c2ccccc2Cl)c2cc([N+](=O)[O-])ccc2N1
REMARK SMILES IDX 1 1 2 2 3 3 4 4 5 5 13 6 14 7 15 8 19 9 20 10 21 11 22 12
REMARK SMILES IDX 6 14 7 15 11 16 8 17 10 18 9 19 12 20 16 21 17 22 18 23
REMARK H PARENT 22 13
ROOT
ATOM      1  O   UNL     1     138.551 102.587 133.609  1.00  0.00    -0.273 OA
ATOM      2  C   UNL     1     138.666 101.368 133.739  1.00  0.00     0.246 C 
ATOM      3  C   UNL     1     138.395 100.651 135.045  1.00  0.00     0.243 C 
ATOM      4  N   UNL     1     139.610 100.022 135.543  1.00  0.00    -0.274 NA
ATOM      5  C   UNL     1     140.103  99.010 134.918  1.00  0.00     0.076 C 
ATOM      6  C   UNL     1     139.594  98.420 133.642  1.00  0.00     0.031 A 
ATOM      7  C   UNL     1     139.703  97.027 133.467  1.00  0.00     0.098 A 
ATOM      8  C   UNL     1     139.407  96.448 132.227  1.00  0.00     0.270 A 
ATOM      9  C   UNL     1     139.016  97.244 131.148  1.00  0.00     0.088 A 
ATOM     10  C   UNL     1     138.894  98.624 131.326  1.00  0.00     0.034 A 
ATOM     11  C   UNL     1     139.145  99.219 132.573  1.00  0.00     0.051 A 
ATOM     12  N   UNL     1     138.938 100.604 132.635  1.00  0.00    -0.324 N 
ATOM     13  H   UNL     1     138.900 101.138 131.776  1.00  0.00     0.170 HD
ENDROOT
BRANCH   5  14
ATOM     14  C   UNL     1     141.334  98.420 135.506  1.00  0.00     0.019 A 
ATOM     15  C   UNL     1     142.517  98.496 134.760  1.00  0.00     0.012 A 
ATOM     16  C   UNL     1     141.332  97.823 136.772  1.00  0.00     0.050 A 
ATOM     17  C   UNL     1     143.697  97.965 135.278  1.00  0.00     0.001 A 
ATOM     18  C   UNL     1     142.518  97.292 137.282  1.00  0.00     0.021 A 
ATOM     19  C   UNL     1     143.698  97.362 136.536  1.00  0.00     0.002 A 
ATOM     20  Cl  UNL     1     139.894  97.661 137.714  1.00  0.00    -0.084 Cl
ENDBRANCH   5  14
BRANCH   8  21
ATOM     21  N   UNL     1     139.534  94.994 132.051  1.00  0.00     0.062 N 
ATOM     22  O   UNL     1     138.848  94.461 131.167  1.00  0.00    -0.258 OA
ATOM     23  O   UNL     1     140.321  94.393 132.793  1.00  0.00    -0.258 OA
ENDBRANCH   8  21
TORSDOF 2
ENDMDL
MODEL 3
REMARK VINA RESULT:    -6.750      3.751      5.768
REMARK INTER + INTRA:          -8.233
REMARK INTER:                  -7.530
REMARK INTRA:                  -0.704
REMARK UNBOUND:                -0.694
REMARK SMILES O=C1CN=C(c2ccccc2Cl)c2cc([N+](=O)[O-])ccc2N1
REMARK SMILES IDX 1 1 2 2 3 3 4 4 5 5 13 6 14 7 15 8 19 9 20 10 21 11 22 12
REMARK SMILES IDX 6 14 7 15 11 16 8 17 10 18 9 19 12 20 16 21 17 22 18 23
REMARK H PARENT 22 13
ROOT
ATOM      1  O   UNL     1     146.656  94.399 134.407  1.00  0.00    -0.273 OA
ATOM      2  C   UNL     1     145.626  94.533 135.068  1.00  0.00     0.246 C 
ATOM      3  C   UNL     1     144.322  93.850 134.707  1.00  0.00     0.243 C 
ATOM      4  N   UNL     1     143.302  94.836 134.385  1.00  0.00    -0.274 NA
ATOM      5  C   UNL     1     142.824  95.583 135.317  1.00  0.00     0.076 C 
ATOM      6  C   UNL     1     143.262  95.609 136.747  1.00  0.00     0.031 A 
ATOM      7  C   UNL     1     142.289  95.859 137.733  1.00  0.00     0.098 A 
ATOM      8  C   UNL     1     142.672  96.070 139.063  1.00  0.00     0.270 A 
ATOM      9  C   UNL     1     144.022  96.050 139.423  1.00  0.00     0.088 A 
ATOM     10  C   UNL     1     144.986  95.789 138.447  1.00  0.00     0.034 A 
ATOM     11  C   UNL     1     144.618  95.532 137.116  1.00  0.00     0.051 A 
ATOM     12  N   UNL     1     145.675  95.233 136.243  1.00  0.00    -0.324 N 
ATOM     13  H   UNL     1     146.621  95.478 136.509  1.00  0.00     0.170 HD
ENDROOT
BRANCH   5  14
ATOM     14  C   UNL     1     141.773  96.549 134.902  1.00  0.00     0.019 A 
ATOM     15  C   UNL     1     140.469  96.064 134.735  1.00  0.00     0.012 A 
ATOM     16  C   UNL     1     142.057  97.904 134.701  1.00  0.00     0.050 A 
ATOM     17  C   UNL     1     139.450  96.938 134.356  1.00  0.00     0.001 A 
ATOM     18  C   UNL     1     141.030  98.771 134.321  1.00  0.00     0.021 A 
ATOM     19  C   UNL     1     139.730  98.289 134.148  1.00  0.00     0.002 A 
ATOM     20  Cl  UNL     1     143.653  98.545 134.848  1.00  0.00    -0.084 Cl
ENDBRANCH   5  14
BRANCH   8  21
ATOM     21  N   UNL     1     141.650  96.340 140.084  1.00  0.00     0.062 N 
ATOM     22  O   UNL     1     140.601  96.886 139.715  1.00  0.00    -0.258 OA
ATOM     23  O   UNL     1     141.898  96.000 141.248  1.00  0.00    -0.258 OA
ENDBRANCH   8  21
TORSDOF 2
ENDMDL
MODEL 4
REMARK VINA RESULT:    -6.647      2.891      5.001
REMARK INTER + INTRA:          -8.118
REMARK INTER:                  -7.426
REMARK INTRA:                  -0.692
REMARK UNBOUND:                -0.694
REMARK SMILES O=C1CN=C(c2ccccc2Cl)c2cc([N+](=O)[O-])ccc2N1
REMARK SMILES IDX 1 1 2 2 3 3 4 4 5 5 13 6 14 7 15 8 19 9 20 10 21 11 22 12
REMARK SMILES IDX 6 14 7 15 11 16 8 17 10 18 9 19 12 20 16 21 17 22 18 23
REMARK H PARENT 22 13
ROOT
ATOM      1  O   UNL     1     140.135  97.550 137.988  1.00  0.00    -0.273 OA
ATOM      2  C   UNL     1     140.171  97.555 136.757  1.00  0.00     0.246 C 
ATOM      3  C   UNL     1     140.090  96.291 135.927  1.00  0.00     0.243 C 
ATOM      4  N   UNL     1     141.320  96.096 135.174  1.00  0.00    -0.274 NA
ATOM      5  C   UNL     1     141.603  96.893 134.203  1.00  0.00     0.076 C 
ATOM      6  C   UNL     1     140.818  98.094 133.782  1.00  0.00     0.031 A 
ATOM      7  C   UNL     1     140.777  98.411 132.410  1.00  0.00     0.098 A 
ATOM      8  C   UNL     1     140.209  99.617 131.983  1.00  0.00     0.270 A 
ATOM      9  C   UNL     1     139.690 100.524 132.910  1.00  0.00     0.088 A 
ATOM     10  C   UNL     1     139.718 100.203 134.269  1.00  0.00     0.034 A 
ATOM     11  C   UNL     1     140.245  98.979 134.714  1.00  0.00     0.051 A 
ATOM     12  N   UNL     1     140.168  98.754 136.096  1.00  0.00    -0.324 N 
ATOM     13  H   UNL     1     140.015  99.539 136.718  1.00  0.00     0.170 HD
ENDROOT
BRANCH   5  14
ATOM     14  C   UNL     1     142.869  96.609 133.477  1.00  0.00     0.019 A 
ATOM     15  C   UNL     1     142.895  95.505 132.615  1.00  0.00     0.012 A 
ATOM     16  C   UNL     1     143.999  97.421 133.624  1.00  0.00     0.050 A 
ATOM     17  C   UNL     1     144.058  95.209 131.906  1.00  0.00     0.001 A 
ATOM     18  C   UNL     1     145.160  97.115 132.911  1.00  0.00     0.021 A 
ATOM     19  C   UNL     1     145.190  96.011 132.054  1.00  0.00     0.002 A 
ATOM     20  Cl  UNL     1     144.037  98.765 134.706  1.00  0.00    -0.084 Cl
ENDBRANCH   5  14
BRANCH   8  21
ATOM     21  N   UNL     1     140.180  99.944 130.551  1.00  0.00     0.062 N 
ATOM     22  O   UNL     1     141.073 100.682 130.112  1.00  0.00    -0.258 OA
ATOM     23  O   UNL     1     139.270  99.456 129.869  1.00  0.00    -0.258 OA
ENDBRANCH   8  21
TORSDOF 2
ENDMDL
MODEL 5
REMARK VINA RESULT:    -6.633      2.233      2.638
REMARK INTER + INTRA:          -8.103
REMARK INTER:                  -7.399
REMARK INTRA:                  -0.704
REMARK UNBOUND:                -0.694
REMARK SMILES O=C1CN=C(c2ccccc2Cl)c2cc([N+](=O)[O-])ccc2N1
REMARK SMILES IDX 1 1 2 2 3 3 4 4 5 5 13 6 14 7 15 8 19 9 20 10 21 11 22 12
REMARK SMILES IDX 6 14 7 15 11 16 8 17 10 18 9 19 12 20 16 21 17 22 18 23
REMARK H PARENT 22 13
ROOT
ATOM      1  O   UNL     1     138.506  99.454 133.448  1.00  0.00    -0.273 OA
ATOM      2  C   UNL     1     139.607  99.172 133.922  1.00  0.00     0.246 C 
ATOM      3  C   UNL     1     140.901  99.762 133.402  1.00  0.00     0.243 C 
ATOM      4  N   UNL     1     141.752  98.719 132.851  1.00  0.00    -0.274 NA
ATOM      5  C   UNL     1     142.290  97.855 133.638  1.00  0.00     0.076 C 
ATOM      6  C   UNL     1     142.078  97.746 135.115  1.00  0.00     0.031 A 
ATOM      7  C   UNL     1     143.162  97.326 135.910  1.00  0.00     0.098 A 
ATOM      8  C   UNL     1     142.969  97.038 137.266  1.00  0.00     0.270 A 
ATOM      9  C   UNL     1     141.701  97.150 137.842  1.00  0.00     0.088 A 
ATOM     10  C   UNL     1     140.629  97.579 137.056  1.00  0.00     0.034 A 
ATOM     11  C   UNL     1     140.811  97.914 135.704  1.00  0.00     0.051 A 
ATOM     12  N   UNL     1     139.668  98.381 135.038  1.00  0.00    -0.324 N 
ATOM     13  H   UNL     1     138.755  98.201 135.436  1.00  0.00     0.170 HD
ENDROOT
BRANCH   5  14
ATOM     14  C   UNL     1     143.159  96.837 132.991  1.00  0.00     0.019 A 
ATOM     15  C   UNL     1     144.445  97.229 132.599  1.00  0.00     0.012 A 
ATOM     16  C   UNL     1     142.728  95.521 132.793  1.00  0.00     0.050 A 
ATOM     17  C   UNL     1     145.298  96.304 131.998  1.00  0.00     0.001 A 
ATOM     18  C   UNL     1     143.588  94.601 132.190  1.00  0.00     0.021 A 
ATOM     19  C   UNL     1     144.870  94.992 131.792  1.00  0.00     0.002 A 
ATOM     20  Cl  UNL     1     141.139  94.996 133.216  1.00  0.00    -0.084 Cl
ENDBRANCH   5  14
BRANCH   8  21
ATOM     21  N   UNL     1     144.104  96.591 138.086  1.00  0.00     0.062 N 
ATOM     22  O   UNL     1     144.048  96.799 139.306  1.00  0.00    -0.258 OA
ATOM     23  O   UNL     1     145.043  96.029 137.508  1.00  0.00    -0.258 OA
ENDBRANCH   8  21
TORSDOF 2
ENDMDL
MODEL 6
REMARK VINA RESULT:    -6.625      3.429      4.610
REMARK INTER + INTRA:          -8.094
REMARK INTER:                  -7.471
REMARK INTRA:                  -0.623
REMARK UNBOUND:                -0.694
REMARK SMILES O=C1CN=C(c2ccccc2Cl)c2cc([N+](=O)[O-])ccc2N1
REMARK SMILES IDX 1 1 2 2 3 3 4 4 5 5 13 6 14 7 15 8 19 9 20 10 21 11 22 12
REMARK SMILES IDX 6 14 7 15 11 16 8 17 10 18 9 19 12 20 16 21 17 22 18 23
REMARK H PARENT 22 13
ROOT
ATOM      1  O   UNL     1     141.556  99.338 133.283  1.00  0.00    -0.273 OA
ATOM      2  C   UNL     1     142.090  98.784 134.244  1.00  0.00     0.246 C 
ATOM      3  C   UNL     1     143.589  98.774 134.459  1.00  0.00     0.243 C 
ATOM      4  N   UNL     1     144.103  97.414 134.399  1.00  0.00    -0.274 NA
ATOM      5  C   UNL     1     143.814  96.584 135.338  1.00  0.00     0.076 C 
ATOM      6  C   UNL     1     142.912  96.839 136.504  1.00  0.00     0.031 A 
ATOM      7  C   UNL     1     143.226  96.227 137.732  1.00  0.00     0.098 A 
ATOM      8  C   UNL     1     142.324  96.288 138.800  1.00  0.00     0.270 A 
ATOM      9  C   UNL     1     141.099  96.944 138.657  1.00  0.00     0.088 A 
ATOM     10  C   UNL     1     140.793  97.563 137.443  1.00  0.00     0.034 A 
ATOM     11  C   UNL     1     141.703  97.549 136.373  1.00  0.00     0.051 A 
ATOM     12  N   UNL     1     141.300  98.250 135.227  1.00  0.00    -0.324 N 
ATOM     13  H   UNL     1     140.321  98.481 135.106  1.00  0.00     0.170 HD
ENDROOT
BRANCH   5  14
ATOM     14  C   UNL     1     144.397  95.223 135.206  1.00  0.00     0.019 A 
ATOM     15  C   UNL     1     145.662  94.996 135.764  1.00  0.00     0.012 A 
ATOM     16  C   UNL     1     143.708  94.186 134.566  1.00  0.00     0.050 A 
ATOM     17  C   UNL     1     146.241  93.731 135.672  1.00  0.00     0.001 A 
ATOM     18  C   UNL     1     144.297  92.923 134.478  1.00  0.00     0.021 A 
ATOM     19  C   UNL     1     145.561  92.696 135.029  1.00  0.00     0.002 A 
ATOM     20  Cl  UNL     1     142.168  94.422 133.823  1.00  0.00    -0.084 Cl
ENDBRANCH   5  14
BRANCH   8  21
ATOM     21  N   UNL     1     142.656  95.637 140.075  1.00  0.00     0.062 N 
ATOM     22  O   UNL     1     142.074  96.037 141.093  1.00  0.00    -0.258 OA
ATOM     23  O   UNL     1     143.493  94.725 140.053  1.00  0.00    -0.258 OA
ENDBRANCH   8  21
TORSDOF 2
ENDMDL
MODEL 7
REMARK VINA RESULT:    -6.379      2.667      3.084
REMARK INTER + INTRA:          -7.819
REMARK INTER:                  -7.108
REMARK INTRA:                  -0.711
REMARK UNBOUND:                -0.694
REMARK SMILES O=C1CN=C(c2ccccc2Cl)c2cc([N+](=O)[O-])ccc2N1
REMARK SMILES IDX 1 1 2 2 3 3 4 4 5 5 13 6 14 7 15 8 19 9 20 10 21 11 22 12
REMARK SMILES IDX 6 14 7 15 11 16 8 17 10 18 9 19 12 20 16 21 17 22 18 23
REMARK H PARENT 22 13
ROOT
ATOM      1  O   UNL     1     139.127  99.907 133.466  1.00  0.00    -0.273 OA
ATOM      2  C   UNL     1     139.990  99.272 134.072  1.00  0.00     0.246 C 
ATOM      3  C   UNL     1     141.431  99.192 133.609  1.00  0.00     0.243 C 
ATOM      4  N   UNL     1     141.783  97.821 133.273  1.00  0.00    -0.274 NA
ATOM      5  C   UNL     1     141.879  96.943 134.208  1.00  0.00     0.076 C 
ATOM      6  C   UNL     1     141.591  97.156 135.660  1.00  0.00     0.031 A 
ATOM      7  C   UNL     1     142.369  96.453 136.600  1.00  0.00     0.098 A 
ATOM      8  C   UNL     1     142.027  96.478 137.957  1.00  0.00     0.270 A 
ATOM      9  C   UNL     1     140.904  97.187 138.392  1.00  0.00     0.088 A 
ATOM     10  C   UNL     1     140.140  97.895 137.461  1.00  0.00     0.034 A 
ATOM     11  C   UNL     1     140.492  97.917 136.102  1.00  0.00     0.051 A 
ATOM     12  N   UNL     1     139.675  98.705 135.278  1.00  0.00    -0.324 N 
ATOM     13  H   UNL     1     138.758  98.979 135.607  1.00  0.00     0.170 HD
ENDROOT
BRANCH   5  14
ATOM     14  C   UNL     1     142.261  95.572 133.776  1.00  0.00     0.019 A 
ATOM     15  C   UNL     1     141.234  94.639 133.579  1.00  0.00     0.012 A 
ATOM     16  C   UNL     1     143.595  95.217 133.550  1.00  0.00     0.050 A 
ATOM     17  C   UNL     1     141.546  93.345 133.164  1.00  0.00     0.001 A 
ATOM     18  C   UNL     1     143.898  93.918 133.135  1.00  0.00     0.021 A 
ATOM     19  C   UNL     1     142.876  92.984 132.944  1.00  0.00     0.002 A 
ATOM     20  Cl  UNL     1     144.901  96.312 133.821  1.00  0.00    -0.084 Cl
ENDBRANCH   5  14
BRANCH   8  21
ATOM     21  N   UNL     1     142.839  95.734 138.929  1.00  0.00     0.062 N 
ATOM     22  O   UNL     1     142.293  95.382 139.984  1.00  0.00    -0.258 OA
ATOM     23  O   UNL     1     144.018  95.499 138.632  1.00  0.00    -0.258 OA
ENDBRANCH   8  21
TORSDOF 2
ENDMDL
MODEL 8
REMARK VINA RESULT:    -6.355      2.255      2.670
REMARK INTER + INTRA:          -7.792
REMARK INTER:                  -7.291
REMARK INTRA:                  -0.501
REMARK UNBOUND:                -0.694
REMARK SMILES O=C1CN=C(c2ccccc2Cl)c2cc([N+](=O)[O-])ccc2N1
REMARK SMILES IDX 1 1 2 2 3 3 4 4 5 5 13 6 14 7 15 8 19 9 20 10 21 11 22 12
REMARK SMILES IDX 6 14 7 15 11 16 8 17 10 18 9 19 12 20 16 21 17 22 18 23
REMARK H PARENT 22 13
ROOT
ATOM      1  O   UNL     1     138.467 100.947 136.148  1.00  0.00    -0.273 OA
ATOM      2  C   UNL     1     139.082 100.420 135.221  1.00  0.00     0.246 C 
ATOM      3  C   UNL     1     138.887 100.819 133.773  1.00  0.00     0.243 C 
ATOM      4  N   UNL     1     138.351  99.706 133.005  1.00  0.00    -0.274 NA
ATOM      5  C   UNL     1     139.090  98.677 132.776  1.00  0.00     0.076 C 
ATOM      6  C   UNL     1     140.476  98.447 133.289  1.00  0.00     0.031 A 
ATOM      7  C   UNL     1     141.381  97.753 132.464  1.00  0.00     0.098 A 
ATOM      8  C   UNL     1     142.627  97.357 132.964  1.00  0.00     0.270 A 
ATOM      9  C   UNL     1     142.981  97.633 134.287  1.00  0.00     0.088 A 
ATOM     10  C   UNL     1     142.089  98.334 135.101  1.00  0.00     0.034 A 
ATOM     11  C   UNL     1     140.851  98.777 134.606  1.00  0.00     0.051 A 
ATOM     12  N   UNL     1     140.068  99.513 135.506  1.00  0.00    -0.324 N 
ATOM     13  H   UNL     1     140.270  99.460 136.497  1.00  0.00     0.170 HD
ENDROOT
BRANCH   5  14
ATOM     14  C   UNL     1     138.468  97.595 131.968  1.00  0.00     0.019 A 
ATOM     15  C   UNL     1     138.055  97.907 130.666  1.00  0.00     0.012 A 
ATOM     16  C   UNL     1     138.311  96.299 132.470  1.00  0.00     0.050 A 
ATOM     17  C   UNL     1     137.477  96.920 129.869  1.00  0.00     0.001 A 
ATOM     18  C   UNL     1     137.729  95.317 131.666  1.00  0.00     0.021 A 
ATOM     19  C   UNL     1     137.312  95.627 130.368  1.00  0.00     0.002 A 
ATOM     20  Cl  UNL     1     138.759  95.872 134.082  1.00  0.00    -0.084 Cl
ENDBRANCH   5  14
BRANCH   8  21
ATOM     21  N   UNL     1     143.562  96.624 132.098  1.00  0.00     0.062 N 
ATOM     22  O   UNL     1     144.584  97.217 131.725  1.00  0.00    -0.258 OA
ATOM     23  O   UNL     1     143.273  95.459 131.800  1.00  0.00    -0.258 OA
ENDBRANCH   8  21
TORSDOF 2
ENDMDL
MODEL 9
REMARK VINA RESULT:    -6.242      3.066      4.606
REMARK INTER + INTRA:          -7.667
REMARK INTER:                  -6.957
REMARK INTRA:                  -0.709
REMARK UNBOUND:                -0.694
REMARK SMILES O=C1CN=C(c2ccccc2Cl)c2cc([N+](=O)[O-])ccc2N1
REMARK SMILES IDX 1 1 2 2 3 3 4 4 5 5 13 6 14 7 15 8 19 9 20 10 21 11 22 12
REMARK SMILES IDX 6 14 7 15 11 16 8 17 10 18 9 19 12 20 16 21 17 22 18 23
REMARK H PARENT 22 13
ROOT
ATOM      1  O   UNL     1     139.176 101.759 133.366  1.00  0.00    -0.273 OA
ATOM      2  C   UNL     1     139.275 100.533 133.311  1.00  0.00     0.246 C 
ATOM      3  C   UNL     1     139.614  99.680 134.517  1.00  0.00     0.243 C 
ATOM      4  N   UNL     1     140.885  99.000 134.318  1.00  0.00    -0.274 NA
ATOM      5  C   UNL     1     140.973  98.060 133.443  1.00  0.00     0.076 C 
ATOM      6  C   UNL     1     139.893  97.610 132.512  1.00  0.00     0.031 A 
ATOM      7  C   UNL     1     139.835  96.243 132.177  1.00  0.00     0.098 A 
ATOM      8  C   UNL     1     138.961  95.800 131.177  1.00  0.00     0.270 A 
ATOM      9  C   UNL     1     138.149  96.708 130.492  1.00  0.00     0.088 A 
ATOM     10  C   UNL     1     138.197  98.061 130.834  1.00  0.00     0.034 A 
ATOM     11  C   UNL     1     139.036  98.519 131.863  1.00  0.00     0.051 A 
ATOM     12  N   UNL     1     138.955  99.890 132.145  1.00  0.00    -0.324 N 
ATOM     13  H   UNL     1     138.545 100.513 131.460  1.00  0.00     0.170 HD
ENDROOT
BRANCH   5  14
ATOM     14  C   UNL     1     142.304  97.408 133.320  1.00  0.00     0.019 A 
ATOM     15  C   UNL     1     143.157  97.851 132.301  1.00  0.00     0.012 A 
ATOM     16  C   UNL     1     142.713  96.399 134.199  1.00  0.00     0.050 A 
ATOM     17  C   UNL     1     144.418  97.274 132.156  1.00  0.00     0.001 A 
ATOM     18  C   UNL     1     143.978  95.827 134.046  1.00  0.00     0.021 A 
ATOM     19  C   UNL     1     144.828  96.263 133.025  1.00  0.00     0.002 A 
ATOM     20  Cl  UNL     1     141.686  95.786 135.443  1.00  0.00    -0.084 Cl
ENDBRANCH   5  14
BRANCH   8  21
ATOM     21  N   UNL     1     138.914  94.374 130.827  1.00  0.00     0.062 N 
ATOM     22  O   UNL     1     139.902  93.681 131.108  1.00  0.00    -0.258 OA
ATOM     23  O   UNL     1     137.887  93.951 130.280  1.00  0.00    -0.258 OA
ENDBRANCH   8  21
TORSDOF 2
ENDMDL
