MODEL 1
REMARK VINA RESULT:    -9.677      0.000      0.000
REMARK INTER + INTRA:         -11.858
REMARK INTER:                 -11.374
REMARK INTRA:                  -0.484
REMARK UNBOUND:                -0.484
REMARK SMILES CN1CCN(C(=O)OC2c3nccnc3C(=O)N2c2ccc(Cl)cn2)CC1
REMARK SMILES IDX 9 1 10 2 11 3 12 4 13 5 14 6 15 7 16 8 17 9 18 10 8 11 6 12
REMARK SMILES IDX 2 13 3 14 27 15 4 16 26 17 5 18 7 19 1 20 19 21 20 22 25 23
REMARK SMILES IDX 21 24 24 25 22 26 23 27
REMARK H PARENT
ROOT
ATOM      1  C   UNL     1     118.372 158.169 108.799  1.00  0.00     0.338 C 
ATOM      2  C   UNL     1     117.467 157.092 108.255  1.00  0.00     0.134 A 
ATOM      3  N   UNL     1     116.275 156.681 108.746  1.00  0.00    -0.251 NA
ATOM      4  C   UNL     1     115.708 155.672 108.035  1.00  0.00     0.131 A 
ATOM      5  C   UNL     1     116.304 155.111 106.904  1.00  0.00     0.132 A 
ATOM      6  N   UNL     1     117.500 155.524 106.418  1.00  0.00    -0.247 NA
ATOM      7  C   UNL     1     118.044 156.524 107.140  1.00  0.00     0.156 A 
ATOM      8  C   UNL     1     119.322 157.197 106.867  1.00  0.00     0.283 C 
ATOM      9  O   UNL     1     120.051 156.913 105.933  1.00  0.00    -0.267 OA
ATOM     10  N   UNL     1     119.472 158.176 107.840  1.00  0.00    -0.248 N 
ENDROOT
BRANCH   1  11
ATOM     11  O   UNL     1     118.869 157.750 110.066  1.00  0.00    -0.419 OA
BRANCH  11  12
ATOM     12  C   UNL     1     118.320 158.404 111.120  1.00  0.00     0.412 C 
ATOM     13  N   UNL     1     117.059 155.694 114.270  1.00  0.00    -0.303 NA
ATOM     14  C   UNL     1     116.855 155.374 112.842  1.00  0.00     0.106 C 
ATOM     15  C   UNL     1     117.479 157.096 114.484  1.00  0.00     0.106 C 
ATOM     16  C   UNL     1     117.859 156.077 111.913  1.00  0.00     0.138 C 
ATOM     17  C   UNL     1     117.236 158.047 113.297  1.00  0.00     0.138 C 
ATOM     18  N   UNL     1     117.814 157.532 112.061  1.00  0.00    -0.306 N 
ATOM     19  O   UNL     1     118.280 159.622 111.230  1.00  0.00    -0.224 OA
ATOM     20  C   UNL     1     115.873 155.354 115.052  1.00  0.00     0.105 C 
ENDBRANCH  11  12
ENDBRANCH   1  11
BRANCH  10  21
ATOM     21  C   UNL     1     120.500 159.128 107.953  1.00  0.00     0.138 A 
ATOM     22  C   UNL     1     121.704 159.011 107.264  1.00  0.00     0.049 A 
ATOM     23  N   UNL     1     120.260 160.184 108.767  1.00  0.00    -0.237 NA
ATOM     24  C   UNL     1     122.687 159.994 107.415  1.00  0.00     0.026 A 
ATOM     25  C   UNL     1     121.227 161.126 108.900  1.00  0.00     0.134 A 
ATOM     26  C   UNL     1     122.445 161.073 108.249  1.00  0.00     0.059 A 
ATOM     27  Cl  UNL     1     123.622 162.300 108.465  1.00  0.00    -0.083 Cl
ENDBRANCH  10  21
TORSDOF 3
ENDMDL
MODEL 2
REMARK VINA RESULT:    -8.605      3.064      5.494
REMARK INTER + INTRA:         -10.599
REMARK INTER:                 -10.307
REMARK INTRA:                  -0.292
REMARK UNBOUND:                -0.484
REMARK SMILES CN1CCN(C(=O)OC2c3nccnc3C(=O)N2c2ccc(Cl)cn2)CC1
REMARK SMILES IDX 9 1 10 2 11 3 12 4 13 5 14 6 15 7 16 8 17 9 18 10 8 11 6 12
REMARK SMILES IDX 2 13 3 14 27 15 4 16 26 17 5 18 7 19 1 20 19 21 20 22 25 23
REMARK SMILES IDX 21 24 24 25 22 26 23 27
REMARK H PARENT
ROOT
ATOM      1  C   UNL     1     119.404 158.162 108.820  1.00  0.00     0.338 C 
ATOM      2  C   UNL     1     120.534 159.075 108.411  1.00  0.00     0.134 A 
ATOM      3  N   UNL     1     121.427 159.701 109.212  1.00  0.00    -0.251 NA
ATOM      4  C   UNL     1     122.318 160.474 108.539  1.00  0.00     0.131 A 
ATOM      5  C   UNL     1     122.309 160.610 107.150  1.00  0.00     0.132 A 
ATOM      6  N   UNL     1     121.409 159.983 106.352  1.00  0.00    -0.247 NA
ATOM      7  C   UNL     1     120.535 159.223 107.042  1.00  0.00     0.156 A 
ATOM      8  C   UNL     1     119.450 158.412 106.471  1.00  0.00     0.283 C 
ATOM      9  O   UNL     1     119.216 158.338 105.278  1.00  0.00    -0.267 OA
ATOM     10  N   UNL     1     118.824 157.779 107.536  1.00  0.00    -0.248 N 
ENDROOT
BRANCH   1  11
ATOM     11  O   UNL     1     118.445 158.920 109.549  1.00  0.00    -0.419 OA
BRANCH  11  12
ATOM     12  C   UNL     1     118.176 158.431 110.785  1.00  0.00     0.412 C 
ATOM     13  N   UNL     1     115.599 161.065 113.082  1.00  0.00    -0.303 NA
ATOM     14  C   UNL     1     116.685 161.590 112.230  1.00  0.00     0.106 C 
ATOM     15  C   UNL     1     115.670 159.598 113.254  1.00  0.00     0.106 C 
ATOM     16  C   UNL     1     117.058 160.650 111.072  1.00  0.00     0.138 C 
ATOM     17  C   UNL     1     117.022 158.955 112.892  1.00  0.00     0.138 C 
ATOM     18  N   UNL     1     117.458 159.326 111.550  1.00  0.00    -0.306 N 
ATOM     19  O   UNL     1     118.523 157.325 111.179  1.00  0.00    -0.224 OA
ATOM     20  C   UNL     1     115.562 161.764 114.364  1.00  0.00     0.105 C 
ENDBRANCH  11  12
ENDBRANCH   1  11
BRANCH  10  21
ATOM     21  C   UNL     1     117.779 156.841 107.488  1.00  0.00     0.138 A 
ATOM     22  C   UNL     1     117.840 155.697 106.695  1.00  0.00     0.049 A 
ATOM     23  N   UNL     1     116.698 157.097 108.263  1.00  0.00    -0.237 NA
ATOM     24  C   UNL     1     116.768 154.799 106.692  1.00  0.00     0.026 A 
ATOM     25  C   UNL     1     115.669 156.213 108.245  1.00  0.00     0.134 A 
ATOM     26  C   UNL     1     115.660 155.060 107.482  1.00  0.00     0.059 A 
ATOM     27  Cl  UNL     1     114.324 153.988 107.508  1.00  0.00    -0.083 Cl
ENDBRANCH  10  21
TORSDOF 3
ENDMDL
MODEL 3
REMARK VINA RESULT:    -8.192      2.325      6.005
REMARK INTER + INTRA:         -10.113
REMARK INTER:                  -9.803
REMARK INTRA:                  -0.310
REMARK UNBOUND:                -0.484
REMARK SMILES CN1CCN(C(=O)OC2c3nccnc3C(=O)N2c2ccc(Cl)cn2)CC1
REMARK SMILES IDX 9 1 10 2 11 3 12 4 13 5 14 6 15 7 16 8 17 9 18 10 8 11 6 12
REMARK SMILES IDX 2 13 3 14 27 15 4 16 26 17 5 18 7 19 1 20 19 21 20 22 25 23
REMARK SMILES IDX 21 24 24 25 22 26 23 27
REMARK H PARENT
ROOT
ATOM      1  C   UNL     1     118.019 158.329 110.077  1.00  0.00     0.338 C 
ATOM      2  C   UNL     1     117.408 157.979 111.411  1.00  0.00     0.134 A 
ATOM      3  N   UNL     1     117.065 158.819 112.415  1.00  0.00    -0.251 NA
ATOM      4  C   UNL     1     116.549 158.191 113.503  1.00  0.00     0.131 A 
ATOM      5  C   UNL     1     116.391 156.806 113.576  1.00  0.00     0.132 A 
ATOM      6  N   UNL     1     116.739 155.968 112.568  1.00  0.00    -0.247 NA
ATOM      7  C   UNL     1     117.249 156.613 111.501  1.00  0.00     0.156 A 
ATOM      8  C   UNL     1     117.707 155.994 110.249  1.00  0.00     0.283 C 
ATOM      9  O   UNL     1     117.676 154.795 110.035  1.00  0.00    -0.267 OA
ATOM     10  N   UNL     1     118.126 157.029 109.423  1.00  0.00    -0.248 N 
ENDROOT
BRANCH   1  11
ATOM     11  O   UNL     1     119.329 158.842 110.296  1.00  0.00    -0.419 OA
BRANCH  11  12
ATOM     12  C   UNL     1     119.431 160.186 110.143  1.00  0.00     0.412 C 
ATOM     13  N   UNL     1     122.533 161.299 107.316  1.00  0.00    -0.303 NA
ATOM     14  C   UNL     1     122.725 160.203 108.287  1.00  0.00     0.106 C 
ATOM     15  C   UNL     1     121.322 162.101 107.595  1.00  0.00     0.106 C 
ATOM     16  C   UNL     1     121.405 159.557 108.742  1.00  0.00     0.138 C 
ATOM     17  C   UNL     1     120.732 161.936 109.008  1.00  0.00     0.138 C 
ATOM     18  N   UNL     1     120.495 160.535 109.338  1.00  0.00    -0.306 N 
ATOM     19  O   UNL     1     118.669 160.997 110.654  1.00  0.00    -0.224 OA
ATOM     20  C   UNL     1     123.731 162.131 107.232  1.00  0.00     0.105 C 
ENDBRANCH  11  12
ENDBRANCH   1  11
BRANCH  10  21
ATOM     21  C   UNL     1     118.576 156.943 108.095  1.00  0.00     0.138 A 
ATOM     22  C   UNL     1     117.706 156.759 107.022  1.00  0.00     0.049 A 
ATOM     23  N   UNL     1     119.911 157.058 107.899  1.00  0.00    -0.237 NA
ATOM     24  C   UNL     1     118.215 156.685 105.722  1.00  0.00     0.026 A 
ATOM     25  C   UNL     1     120.385 156.983 106.629  1.00  0.00     0.134 A 
ATOM     26  C   UNL     1     119.581 156.799 105.520  1.00  0.00     0.059 A 
ATOM     27  Cl  UNL     1     120.249 156.713 103.944  1.00  0.00    -0.083 Cl
ENDBRANCH  10  21
TORSDOF 3
ENDMDL
MODEL 4
REMARK VINA RESULT:    -8.159      3.878      6.804
REMARK INTER + INTRA:         -10.074
REMARK INTER:                  -9.435
REMARK INTRA:                  -0.639
REMARK UNBOUND:                -0.484
REMARK SMILES CN1CCN(C(=O)OC2c3nccnc3C(=O)N2c2ccc(Cl)cn2)CC1
REMARK SMILES IDX 9 1 10 2 11 3 12 4 13 5 14 6 15 7 16 8 17 9 18 10 8 11 6 12
REMARK SMILES IDX 2 13 3 14 27 15 4 16 26 17 5 18 7 19 1 20 19 21 20 22 25 23
REMARK SMILES IDX 21 24 24 25 22 26 23 27
REMARK H PARENT
ROOT
ATOM      1  C   UNL     1     117.065 157.478 114.303  1.00  0.00     0.338 C 
ATOM      2  C   UNL     1     116.473 158.427 115.315  1.00  0.00     0.134 A 
ATOM      3  N   UNL     1     116.432 158.288 116.661  1.00  0.00    -0.251 NA
ATOM      4  C   UNL     1     115.811 159.313 117.299  1.00  0.00     0.131 A 
ATOM      5  C   UNL     1     115.264 160.407 116.626  1.00  0.00     0.132 A 
ATOM      6  N   UNL     1     115.305 160.540 115.278  1.00  0.00    -0.247 NA
ATOM      7  C   UNL     1     115.924 159.511 114.666  1.00  0.00     0.156 A 
ATOM      8  C   UNL     1     116.142 159.364 113.220  1.00  0.00     0.283 C 
ATOM      9  O   UNL     1     115.774 160.179 112.393  1.00  0.00    -0.267 OA
ATOM     10  N   UNL     1     116.839 158.176 113.041  1.00  0.00    -0.248 N 
ENDROOT
BRANCH   1  11
ATOM     11  O   UNL     1     116.303 156.275 114.305  1.00  0.00    -0.419 OA
BRANCH  11  12
ATOM     12  C   UNL     1     117.023 155.164 114.602  1.00  0.00     0.412 C 
ATOM     13  N   UNL     1     115.675 153.248 118.258  1.00  0.00    -0.303 NA
ATOM     14  C   UNL     1     115.766 154.718 118.139  1.00  0.00     0.106 C 
ATOM     15  C   UNL     1     116.322 152.545 117.129  1.00  0.00     0.106 C 
ATOM     16  C   UNL     1     115.648 155.218 116.690  1.00  0.00     0.138 C 
ATOM     17  C   UNL     1     117.292 153.396 116.289  1.00  0.00     0.138 C 
ATOM     18  N   UNL     1     116.669 154.630 115.823  1.00  0.00    -0.306 N 
ATOM     19  O   UNL     1     117.882 154.685 113.873  1.00  0.00    -0.224 OA
ATOM     20  C   UNL     1     116.192 152.800 119.548  1.00  0.00     0.105 C 
ENDBRANCH  11  12
ENDBRANCH   1  11
BRANCH  10  21
ATOM     21  C   UNL     1     117.341 157.643 111.842  1.00  0.00     0.138 A 
ATOM     22  C   UNL     1     118.525 158.094 111.264  1.00  0.00     0.049 A 
ATOM     23  N   UNL     1     116.618 156.651 111.269  1.00  0.00    -0.237 NA
ATOM     24  C   UNL     1     118.975 157.522 110.070  1.00  0.00     0.026 A 
ATOM     25  C   UNL     1     117.072 156.110 110.111  1.00  0.00     0.134 A 
ATOM     26  C   UNL     1     118.235 156.510 109.481  1.00  0.00     0.059 A 
ATOM     27  Cl  UNL     1     118.748 155.781 108.017  1.00  0.00    -0.083 Cl
ENDBRANCH  10  21
TORSDOF 3
ENDMDL
MODEL 5
REMARK VINA RESULT:    -8.079      1.714      2.640
REMARK INTER + INTRA:          -9.981
REMARK INTER:                 -10.956
REMARK INTRA:                   0.975
REMARK UNBOUND:                -0.484
REMARK SMILES CN1CCN(C(=O)OC2c3nccnc3C(=O)N2c2ccc(Cl)cn2)CC1
REMARK SMILES IDX 9 1 10 2 11 3 12 4 13 5 14 6 15 7 16 8 17 9 18 10 8 11 6 12
REMARK SMILES IDX 2 13 3 14 27 15 4 16 26 17 5 18 7 19 1 20 19 21 20 22 25 23
REMARK SMILES IDX 21 24 24 25 22 26 23 27
REMARK H PARENT
ROOT
ATOM      1  C   UNL     1     118.682 158.069 108.686  1.00  0.00     0.338 C 
ATOM      2  C   UNL     1     117.747 157.028 108.122  1.00  0.00     0.134 A 
ATOM      3  N   UNL     1     116.595 156.566 108.661  1.00  0.00    -0.251 NA
ATOM      4  C   UNL     1     115.985 155.610 107.914  1.00  0.00     0.131 A 
ATOM      5  C   UNL     1     116.503 155.147 106.703  1.00  0.00     0.132 A 
ATOM      6  N   UNL     1     117.660 155.611 106.169  1.00  0.00    -0.247 NA
ATOM      7  C   UNL     1     118.247 156.558 106.928  1.00  0.00     0.156 A 
ATOM      8  C   UNL     1     119.499 157.265 106.620  1.00  0.00     0.283 C 
ATOM      9  O   UNL     1     120.161 157.064 105.618  1.00  0.00    -0.267 OA
ATOM     10  N   UNL     1     119.712 158.165 107.656  1.00  0.00    -0.248 N 
ENDROOT
BRANCH   1  11
ATOM     11  O   UNL     1     119.270 157.558 109.877  1.00  0.00    -0.419 OA
BRANCH  11  12
ATOM     12  C   UNL     1     118.442 157.565 110.952  1.00  0.00     0.412 C 
ATOM     13  N   UNL     1     116.710 161.479 111.678  1.00  0.00    -0.303 NA
ATOM     14  C   UNL     1     118.122 161.318 111.277  1.00  0.00     0.106 C 
ATOM     15  C   UNL     1     116.072 160.196 112.044  1.00  0.00     0.106 C 
ATOM     16  C   UNL     1     118.385 160.022 110.490  1.00  0.00     0.138 C 
ATOM     17  C   UNL     1     117.041 159.036 112.336  1.00  0.00     0.138 C 
ATOM     18  N   UNL     1     117.991 158.834 111.248  1.00  0.00    -0.306 N 
ATOM     19  O   UNL     1     118.126 156.566 111.584  1.00  0.00    -0.224 OA
ATOM     20  C   UNL     1     116.584 162.473 112.741  1.00  0.00     0.105 C 
ENDBRANCH  11  12
ENDBRANCH   1  11
BRANCH  10  21
ATOM     21  C   UNL     1     120.738 159.117 107.772  1.00  0.00     0.138 A 
ATOM     22  C   UNL     1     122.010 158.912 107.242  1.00  0.00     0.049 A 
ATOM     23  N   UNL     1     120.430 160.264 108.424  1.00  0.00    -0.237 NA
ATOM     24  C   UNL     1     122.989 159.899 107.387  1.00  0.00     0.026 A 
ATOM     25  C   UNL     1     121.395 161.209 108.554  1.00  0.00     0.134 A 
ATOM     26  C   UNL     1     122.677 161.072 108.056  1.00  0.00     0.059 A 
ATOM     27  Cl  UNL     1     123.846 162.308 108.259  1.00  0.00    -0.083 Cl
ENDBRANCH  10  21
TORSDOF 3
ENDMDL
MODEL 6
REMARK VINA RESULT:    -7.925      4.208      6.519
REMARK INTER + INTRA:          -9.799
REMARK INTER:                  -9.075
REMARK INTRA:                  -0.723
REMARK UNBOUND:                -0.484
REMARK SMILES CN1CCN(C(=O)OC2c3nccnc3C(=O)N2c2ccc(Cl)cn2)CC1
REMARK SMILES IDX 9 1 10 2 11 3 12 4 13 5 14 6 15 7 16 8 17 9 18 10 8 11 6 12
REMARK SMILES IDX 2 13 3 14 27 15 4 16 26 17 5 18 7 19 1 20 19 21 20 22 25 23
REMARK SMILES IDX 21 24 24 25 22 26 23 27
REMARK H PARENT
ROOT
ATOM      1  C   UNL     1     116.347 159.083 112.866  1.00  0.00     0.338 C 
ATOM      2  C   UNL     1     117.313 158.598 111.814  1.00  0.00     0.134 A 
ATOM      3  N   UNL     1     117.663 157.321 111.533  1.00  0.00    -0.251 NA
ATOM      4  C   UNL     1     118.575 157.211 110.533  1.00  0.00     0.131 A 
ATOM      5  C   UNL     1     119.103 158.315 109.861  1.00  0.00     0.132 A 
ATOM      6  N   UNL     1     118.751 159.592 110.149  1.00  0.00    -0.247 NA
ATOM      7  C   UNL     1     117.846 159.677 111.145  1.00  0.00     0.156 A 
ATOM      8  C   UNL     1     117.257 160.913 111.680  1.00  0.00     0.283 C 
ATOM      9  O   UNL     1     117.532 162.027 111.272  1.00  0.00    -0.267 OA
ATOM     10  N   UNL     1     116.360 160.529 112.669  1.00  0.00    -0.248 N 
ENDROOT
BRANCH   1  11
ATOM     11  O   UNL     1     116.887 158.791 114.151  1.00  0.00    -0.419 OA
BRANCH  11  12
ATOM     12  C   UNL     1     115.984 158.288 115.030  1.00  0.00     0.412 C 
ATOM     13  N   UNL     1     117.007 154.277 116.339  1.00  0.00    -0.303 NA
ATOM     14  C   UNL     1     117.178 154.703 114.935  1.00  0.00     0.106 C 
ATOM     15  C   UNL     1     116.234 155.251 117.139  1.00  0.00     0.106 C 
ATOM     16  C   UNL     1     117.369 156.221 114.780  1.00  0.00     0.138 C 
ATOM     17  C   UNL     1     115.422 156.277 116.327  1.00  0.00     0.138 C 
ATOM     18  N   UNL     1     116.249 156.973 115.348  1.00  0.00    -0.306 N 
ATOM     19  O   UNL     1     115.045 158.924 115.493  1.00  0.00    -0.224 OA
ATOM     20  C   UNL     1     116.432 152.936 116.408  1.00  0.00     0.105 C 
ENDBRANCH  11  12
ENDBRANCH   1  11
BRANCH  10  21
ATOM     21  C   UNL     1     115.499 161.351 113.416  1.00  0.00     0.138 A 
ATOM     22  C   UNL     1     114.113 161.247 113.336  1.00  0.00     0.049 A 
ATOM     23  N   UNL     1     116.086 162.254 114.238  1.00  0.00    -0.237 NA
ATOM     24  C   UNL     1     113.309 162.090 114.108  1.00  0.00     0.026 A 
ATOM     25  C   UNL     1     115.287 163.064 114.978  1.00  0.00     0.134 A 
ATOM     26  C   UNL     1     113.906 163.018 114.947  1.00  0.00     0.059 A 
ATOM     27  Cl  UNL     1     112.960 164.073 115.910  1.00  0.00    -0.083 Cl
ENDBRANCH  10  21
TORSDOF 3
ENDMDL
MODEL 7
REMARK VINA RESULT:    -7.883      3.952      6.903
REMARK INTER + INTRA:          -9.750
REMARK INTER:                  -8.913
REMARK INTRA:                  -0.837
REMARK UNBOUND:                -0.484
REMARK SMILES CN1CCN(C(=O)OC2c3nccnc3C(=O)N2c2ccc(Cl)cn2)CC1
REMARK SMILES IDX 9 1 10 2 11 3 12 4 13 5 14 6 15 7 16 8 17 9 18 10 8 11 6 12
REMARK SMILES IDX 2 13 3 14 27 15 4 16 26 17 5 18 7 19 1 20 19 21 20 22 25 23
REMARK SMILES IDX 21 24 24 25 22 26 23 27
REMARK H PARENT
ROOT
ATOM      1  C   UNL     1     116.208 156.369 114.315  1.00  0.00     0.338 C 
ATOM      2  C   UNL     1     116.203 155.432 115.497  1.00  0.00     0.134 A 
ATOM      3  N   UNL     1     115.503 155.551 116.649  1.00  0.00    -0.251 NA
ATOM      4  C   UNL     1     115.727 154.544 117.533  1.00  0.00     0.131 A 
ATOM      5  C   UNL     1     116.602 153.487 117.274  1.00  0.00     0.132 A 
ATOM      6  N   UNL     1     117.303 153.374 116.119  1.00  0.00    -0.247 NA
ATOM      7  C   UNL     1     117.065 154.384 115.259  1.00  0.00     0.156 A 
ATOM      8  C   UNL     1     117.657 154.545 113.923  1.00  0.00     0.283 C 
ATOM      9  O   UNL     1     118.452 153.761 113.436  1.00  0.00    -0.267 OA
ATOM     10  N   UNL     1     117.113 155.703 113.383  1.00  0.00    -0.248 N 
ENDROOT
BRANCH   1  11
ATOM     11  O   UNL     1     116.791 157.605 114.715  1.00  0.00    -0.419 OA
BRANCH  11  12
ATOM     12  C   UNL     1     116.078 158.699 114.346  1.00  0.00     0.412 C 
ATOM     13  N   UNL     1     114.771 161.048 117.756  1.00  0.00    -0.303 NA
ATOM     14  C   UNL     1     114.743 159.571 117.774  1.00  0.00     0.106 C 
ATOM     15  C   UNL     1     115.030 161.596 116.407  1.00  0.00     0.106 C 
ATOM     16  C   UNL     1     115.764 158.933 116.816  1.00  0.00     0.138 C 
ATOM     17  C   UNL     1     114.819 160.611 115.242  1.00  0.00     0.138 C 
ATOM     18  N   UNL     1     115.565 159.372 115.435  1.00  0.00    -0.306 N 
ATOM     19  O   UNL     1     115.911 159.053 113.186  1.00  0.00    -0.224 OA
ATOM     20  C   UNL     1     113.550 161.595 118.342  1.00  0.00     0.105 C 
ENDBRANCH  11  12
ENDBRANCH   1  11
BRANCH  10  21
ATOM     21  C   UNL     1     117.315 156.231 112.097  1.00  0.00     0.138 A 
ATOM     22  C   UNL     1     118.390 157.062 111.792  1.00  0.00     0.049 A 
ATOM     23  N   UNL     1     116.410 155.884 111.151  1.00  0.00    -0.237 NA
ATOM     24  C   UNL     1     118.539 157.553 110.492  1.00  0.00     0.026 A 
ATOM     25  C   UNL     1     116.572 156.373 109.895  1.00  0.00     0.134 A 
ATOM     26  C   UNL     1     117.613 157.203 109.523  1.00  0.00     0.059 A 
ATOM     27  Cl  UNL     1     117.755 157.783 107.917  1.00  0.00    -0.083 Cl
ENDBRANCH  10  21
TORSDOF 3
ENDMDL
MODEL 8
REMARK VINA RESULT:    -7.879      4.413      7.279
REMARK INTER + INTRA:          -9.745
REMARK INTER:                  -8.937
REMARK INTRA:                  -0.808
REMARK UNBOUND:                -0.484
REMARK SMILES CN1CCN(C(=O)OC2c3nccnc3C(=O)N2c2ccc(Cl)cn2)CC1
REMARK SMILES IDX 9 1 10 2 11 3 12 4 13 5 14 6 15 7 16 8 17 9 18 10 8 11 6 12
REMARK SMILES IDX 2 13 3 14 27 15 4 16 26 17 5 18 7 19 1 20 19 21 20 22 25 23
REMARK SMILES IDX 21 24 24 25 22 26 23 27
REMARK H PARENT
ROOT
ATOM      1  C   UNL     1     116.727 157.386 113.067  1.00  0.00     0.338 C 
ATOM      2  C   UNL     1     117.545 157.754 111.854  1.00  0.00     0.134 A 
ATOM      3  N   UNL     1     118.228 156.926 111.030  1.00  0.00    -0.251 NA
ATOM      4  C   UNL     1     118.884 157.568 110.029  1.00  0.00     0.131 A 
ATOM      5  C   UNL     1     118.855 158.955 109.869  1.00  0.00     0.132 A 
ATOM      6  N   UNL     1     118.171 159.780 110.699  1.00  0.00    -0.247 NA
ATOM      7  C   UNL     1     117.530 159.121 111.685  1.00  0.00     0.156 A 
ATOM      8  C   UNL     1     116.696 159.725 112.734  1.00  0.00     0.283 C 
ATOM      9  O   UNL     1     116.490 160.921 112.831  1.00  0.00    -0.267 OA
ATOM     10  N   UNL     1     116.216 158.679 113.512  1.00  0.00    -0.248 N 
ENDROOT
BRANCH   1  11
ATOM     11  O   UNL     1     117.600 156.869 114.067  1.00  0.00    -0.419 OA
BRANCH  11  12
ATOM     12  C   UNL     1     117.591 155.516 114.165  1.00  0.00     0.412 C 
ATOM     13  N   UNL     1     115.650 154.136 117.795  1.00  0.00    -0.303 NA
ATOM     14  C   UNL     1     116.541 155.313 117.791  1.00  0.00     0.106 C 
ATOM     15  C   UNL     1     115.714 153.370 116.532  1.00  0.00     0.106 C 
ATOM     16  C   UNL     1     116.627 156.005 116.420  1.00  0.00     0.138 C 
ATOM     17  C   UNL     1     116.936 153.663 115.642  1.00  0.00     0.138 C 
ATOM     18  N   UNL     1     117.082 155.090 115.373  1.00  0.00    -0.306 N 
ATOM     19  O   UNL     1     117.983 154.759 113.286  1.00  0.00    -0.224 OA
ATOM     20  C   UNL     1     115.912 153.292 118.959  1.00  0.00     0.105 C 
ENDBRANCH  11  12
ENDBRANCH   1  11
BRANCH  10  21
ATOM     21  C   UNL     1     115.317 158.748 114.590  1.00  0.00     0.138 A 
ATOM     22  C   UNL     1     114.113 158.048 114.603  1.00  0.00     0.049 A 
ATOM     23  N   UNL     1     115.683 159.529 115.634  1.00  0.00    -0.237 NA
ATOM     24  C   UNL     1     113.262 158.155 115.707  1.00  0.00     0.026 A 
ATOM     25  C   UNL     1     114.841 159.620 116.695  1.00  0.00     0.134 A 
ATOM     26  C   UNL     1     113.632 158.957 116.774  1.00  0.00     0.059 A 
ATOM     27  Cl  UNL     1     112.618 159.119 118.147  1.00  0.00    -0.083 Cl
ENDBRANCH  10  21
TORSDOF 3
ENDMDL
MODEL 9
REMARK VINA RESULT:    -7.598      3.394      7.259
REMARK INTER + INTRA:          -9.415
REMARK INTER:                  -9.358
REMARK INTRA:                  -0.057
REMARK UNBOUND:                -0.484
REMARK SMILES CN1CCN(C(=O)OC2c3nccnc3C(=O)N2c2ccc(Cl)cn2)CC1
REMARK SMILES IDX 9 1 10 2 11 3 12 4 13 5 14 6 15 7 16 8 17 9 18 10 8 11 6 12
REMARK SMILES IDX 2 13 3 14 27 15 4 16 26 17 5 18 7 19 1 20 19 21 20 22 25 23
REMARK SMILES IDX 21 24 24 25 22 26 23 27
REMARK H PARENT
ROOT
ATOM      1  C   UNL     1     116.974 157.199 113.843  1.00  0.00     0.338 C 
ATOM      2  C   UNL     1     116.755 155.893 114.565  1.00  0.00     0.134 A 
ATOM      3  N   UNL     1     117.464 154.747 114.445  1.00  0.00    -0.251 NA
ATOM      4  C   UNL     1     117.004 153.734 115.224  1.00  0.00     0.131 A 
ATOM      5  C   UNL     1     115.900 153.865 116.068  1.00  0.00     0.132 A 
ATOM      6  N   UNL     1     115.190 155.015 116.182  1.00  0.00    -0.247 NA
ATOM      7  C   UNL     1     115.664 156.005 115.399  1.00  0.00     0.156 A 
ATOM      8  C   UNL     1     115.126 157.370 115.304  1.00  0.00     0.283 C 
ATOM      9  O   UNL     1     114.165 157.765 115.939  1.00  0.00    -0.267 OA
ATOM     10  N   UNL     1     115.934 158.054 114.405  1.00  0.00    -0.248 N 
ENDROOT
BRANCH   1  11
ATOM     11  O   UNL     1     116.709 157.004 112.457  1.00  0.00    -0.419 OA
BRANCH  11  12
ATOM     12  C   UNL     1     117.798 157.143 111.660  1.00  0.00     0.412 C 
ATOM     13  N   UNL     1     116.888 156.412 107.478  1.00  0.00    -0.303 NA
ATOM     14  C   UNL     1     116.311 155.582 108.554  1.00  0.00     0.106 C 
ATOM     15  C   UNL     1     117.966 157.302 107.961  1.00  0.00     0.106 C 
ATOM     16  C   UNL     1     116.221 156.314 109.904  1.00  0.00     0.138 C 
ATOM     17  C   UNL     1     118.561 156.933 109.333  1.00  0.00     0.138 C 
ATOM     18  N   UNL     1     117.529 156.793 110.354  1.00  0.00    -0.306 N 
ATOM     19  O   UNL     1     118.890 157.536 112.048  1.00  0.00    -0.224 OA
ATOM     20  C   UNL     1     117.327 155.580 106.361  1.00  0.00     0.105 C 
ENDBRANCH  11  12
ENDBRANCH   1  11
BRANCH  10  21
ATOM     21  C   UNL     1     115.864 159.410 114.043  1.00  0.00     0.138 A 
ATOM     22  C   UNL     1     116.318 159.878 112.813  1.00  0.00     0.049 A 
ATOM     23  N   UNL     1     115.319 160.252 114.953  1.00  0.00    -0.237 NA
ATOM     24  C   UNL     1     116.218 161.239 112.509  1.00  0.00     0.026 A 
ATOM     25  C   UNL     1     115.232 161.570 114.639  1.00  0.00     0.134 A 
ATOM     26  C   UNL     1     115.664 162.103 113.440  1.00  0.00     0.059 A 
ATOM     27  Cl  UNL     1     115.524 163.779 113.111  1.00  0.00    -0.083 Cl
ENDBRANCH  10  21
TORSDOF 3
ENDMDL
