MODEL 1
REMARK VINA RESULT:   -10.889      0.000      0.000
REMARK INTER + INTRA:         -11.594
REMARK INTER:                 -11.526
REMARK INTRA:                  -0.068
REMARK UNBOUND:                -0.068
REMARK SMILES Cc1nnc2n1-c1ccc(Cl)cc1C(c1ccccc1Cl)=NC2
REMARK SMILES IDX 1 1 2 2 3 3 4 4 5 5 6 6 7 7 8 8 9 9 10 10 11 11 12 12 13 13
REMARK SMILES IDX 14 14 22 15 23 16 15 17 16 18 20 19 17 20 19 21 18 22 21 23
REMARK H PARENT
ROOT
ATOM      1  C   UNL     1     115.458 160.704 113.075  1.00  0.00     0.090 C 
ATOM      2  C   UNL     1     116.663 160.841 112.222  1.00  0.00     0.134 A 
ATOM      3  N   UNL     1     117.084 161.985 111.721  1.00  0.00    -0.135 NA
ATOM      4  N   UNL     1     118.117 161.725 110.868  1.00  0.00    -0.133 NA
ATOM      5  C   UNL     1     118.322 160.426 110.861  1.00  0.00     0.159 A 
ATOM      6  N   UNL     1     117.455 159.809 111.737  1.00  0.00    -0.281 N 
ATOM      7  C   UNL     1     117.464 158.431 112.078  1.00  0.00     0.058 A 
ATOM      8  C   UNL     1     117.141 158.052 113.393  1.00  0.00     0.029 A 
ATOM      9  C   UNL     1     117.189 156.711 113.780  1.00  0.00     0.023 A 
ATOM     10  C   UNL     1     117.568 155.740 112.862  1.00  0.00     0.041 A 
ATOM     11  Cl  UNL     1     117.636 154.090 113.342  1.00  0.00    -0.084 Cl
ATOM     12  C   UNL     1     117.895 156.096 111.556  1.00  0.00     0.033 A 
ATOM     13  C   UNL     1     117.842 157.440 111.146  1.00  0.00     0.026 A 
ATOM     14  C   UNL     1     118.102 157.723 109.697  1.00  0.00     0.076 C 
ATOM     15  N   UNL     1     118.762 158.721 109.222  1.00  0.00    -0.276 NA
ATOM     16  C   UNL     1     119.369 159.691 110.123  1.00  0.00     0.220 C 
ENDROOT
BRANCH  14  17
ATOM     17  C   UNL     1     117.509 156.793 108.700  1.00  0.00     0.019 A 
ATOM     18  C   UNL     1     116.165 156.434 108.859  1.00  0.00     0.012 A 
ATOM     19  C   UNL     1     118.249 156.306 107.616  1.00  0.00     0.050 A 
ATOM     20  C   UNL     1     115.563 155.576 107.938  1.00  0.00     0.001 A 
ATOM     21  C   UNL     1     117.638 155.446 106.699  1.00  0.00     0.021 A 
ATOM     22  C   UNL     1     116.299 155.083 106.860  1.00  0.00     0.002 A 
ATOM     23  Cl  UNL     1     119.921 156.674 107.396  1.00  0.00    -0.084 Cl
ENDBRANCH  14  17
TORSDOF 1
ENDMDL
MODEL 2
REMARK VINA RESULT:    -8.754      2.267      5.227
REMARK INTER + INTRA:          -9.334
REMARK INTER:                  -9.080
REMARK INTRA:                  -0.253
REMARK UNBOUND:                -0.068
REMARK SMILES Cc1nnc2n1-c1ccc(Cl)cc1C(c1ccccc1Cl)=NC2
REMARK SMILES IDX 1 1 2 2 3 3 4 4 5 5 6 6 7 7 8 8 9 9 10 10 11 11 12 12 13 13
REMARK SMILES IDX 14 14 22 15 23 16 15 17 16 18 20 19 17 20 19 21 18 22 21 23
REMARK H PARENT
ROOT
ATOM      1  C   UNL     1     120.633 157.092 107.126  1.00  0.00     0.090 C 
ATOM      2  C   UNL     1     120.265 158.179 108.065  1.00  0.00     0.134 A 
ATOM      3  N   UNL     1     121.060 159.183 108.376  1.00  0.00    -0.135 NA
ATOM      4  N   UNL     1     120.469 159.904 109.374  1.00  0.00    -0.133 NA
ATOM      5  C   UNL     1     119.318 159.335 109.659  1.00  0.00     0.159 A 
ATOM      6  N   UNL     1     119.109 158.255 108.830  1.00  0.00    -0.281 N 
ATOM      7  C   UNL     1     117.925 157.475 108.770  1.00  0.00     0.058 A 
ATOM      8  C   UNL     1     117.504 156.968 107.527  1.00  0.00     0.029 A 
ATOM      9  C   UNL     1     116.318 156.240 107.419  1.00  0.00     0.023 A 
ATOM     10  C   UNL     1     115.538 156.020 108.547  1.00  0.00     0.041 A 
ATOM     11  Cl  UNL     1     114.072 155.131 108.411  1.00  0.00    -0.084 Cl
ATOM     12  C   UNL     1     115.935 156.515 109.786  1.00  0.00     0.033 A 
ATOM     13  C   UNL     1     117.133 157.242 109.915  1.00  0.00     0.026 A 
ATOM     14  C   UNL     1     117.541 157.644 111.300  1.00  0.00     0.076 C 
ATOM     15  N   UNL     1     118.079 158.763 111.641  1.00  0.00    -0.276 NA
ATOM     16  C   UNL     1     118.315 159.795 110.641  1.00  0.00     0.220 C 
ENDROOT
BRANCH  14  17
ATOM     17  C   UNL     1     117.352 156.648 112.387  1.00  0.00     0.019 A 
ATOM     18  C   UNL     1     117.901 155.372 112.207  1.00  0.00     0.012 A 
ATOM     19  C   UNL     1     116.674 156.968 113.569  1.00  0.00     0.050 A 
ATOM     20  C   UNL     1     117.762 154.411 113.209  1.00  0.00     0.001 A 
ATOM     21  C   UNL     1     116.539 155.998 114.566  1.00  0.00     0.021 A 
ATOM     22  C   UNL     1     117.081 154.723 114.386  1.00  0.00     0.002 A 
ATOM     23  Cl  UNL     1     115.934 158.506 113.826  1.00  0.00    -0.084 Cl
ENDBRANCH  14  17
TORSDOF 1
ENDMDL
MODEL 3
REMARK VINA RESULT:    -8.723      2.509      6.401
REMARK INTER + INTRA:          -9.301
REMARK INTER:                 -10.624
REMARK INTRA:                   1.323
REMARK UNBOUND:                -0.068
REMARK SMILES Cc1nnc2n1-c1ccc(Cl)cc1C(c1ccccc1Cl)=NC2
REMARK SMILES IDX 1 1 2 2 3 3 4 4 5 5 6 6 7 7 8 8 9 9 10 10 11 11 12 12 13 13
REMARK SMILES IDX 14 14 22 15 23 16 15 17 16 18 20 19 17 20 19 21 18 22 21 23
REMARK H PARENT
ROOT
ATOM      1  C   UNL     1     117.570 156.515 106.373  1.00  0.00     0.090 C 
ATOM      2  C   UNL     1     117.603 156.197 107.820  1.00  0.00     0.134 A 
ATOM      3  N   UNL     1     116.881 155.248 108.382  1.00  0.00    -0.135 NA
ATOM      4  N   UNL     1     117.040 155.332 109.735  1.00  0.00    -0.133 NA
ATOM      5  C   UNL     1     117.862 156.328 109.986  1.00  0.00     0.159 A 
ATOM      6  N   UNL     1     118.290 156.893 108.804  1.00  0.00    -0.281 N 
ATOM      7  C   UNL     1     119.272 157.911 108.682  1.00  0.00     0.058 A 
ATOM      8  C   UNL     1     120.143 157.890 107.578  1.00  0.00     0.029 A 
ATOM      9  C   UNL     1     121.154 158.845 107.450  1.00  0.00     0.023 A 
ATOM     10  C   UNL     1     121.310 159.821 108.425  1.00  0.00     0.041 A 
ATOM     11  Cl  UNL     1     122.561 160.990 108.271  1.00  0.00    -0.084 Cl
ATOM     12  C   UNL     1     120.460 159.857 109.528  1.00  0.00     0.033 A 
ATOM     13  C   UNL     1     119.429 158.910 109.668  1.00  0.00     0.026 A 
ATOM     14  C   UNL     1     118.493 159.087 110.824  1.00  0.00     0.076 C 
ATOM     15  N   UNL     1     117.997 158.149 111.553  1.00  0.00    -0.276 NA
ATOM     16  C   UNL     1     118.363 156.761 111.307  1.00  0.00     0.220 C 
ENDROOT
BRANCH  14  17
ATOM     17  C   UNL     1     118.050 160.469 111.144  1.00  0.00     0.019 A 
ATOM     18  C   UNL     1     118.683 161.528 110.480  1.00  0.00     0.012 A 
ATOM     19  C   UNL     1     117.019 160.720 112.056  1.00  0.00     0.050 A 
ATOM     20  C   UNL     1     118.288 162.841 110.737  1.00  0.00     0.001 A 
ATOM     21  C   UNL     1     116.632 162.039 112.308  1.00  0.00     0.021 A 
ATOM     22  C   UNL     1     117.265 163.097 111.651  1.00  0.00     0.002 A 
ATOM     23  Cl  UNL     1     116.238 159.461 112.941  1.00  0.00    -0.084 Cl
ENDBRANCH  14  17
TORSDOF 1
ENDMDL
MODEL 4
REMARK VINA RESULT:    -8.633      1.813      2.322
REMARK INTER + INTRA:          -9.206
REMARK INTER:                  -8.642
REMARK INTRA:                  -0.564
REMARK UNBOUND:                -0.068
REMARK SMILES Cc1nnc2n1-c1ccc(Cl)cc1C(c1ccccc1Cl)=NC2
REMARK SMILES IDX 1 1 2 2 3 3 4 4 5 5 6 6 7 7 8 8 9 9 10 10 11 11 12 12 13 13
REMARK SMILES IDX 14 14 22 15 23 16 15 17 16 18 20 19 17 20 19 21 18 22 21 23
REMARK H PARENT
ROOT
ATOM      1  C   UNL     1     113.626 157.885 114.984  1.00  0.00     0.090 C 
ATOM      2  C   UNL     1     114.548 158.829 114.310  1.00  0.00     0.134 A 
ATOM      3  N   UNL     1     114.348 160.130 114.240  1.00  0.00    -0.135 NA
ATOM      4  N   UNL     1     115.301 160.667 113.424  1.00  0.00    -0.133 NA
ATOM      5  C   UNL     1     116.077 159.690 113.007  1.00  0.00     0.159 A 
ATOM      6  N   UNL     1     115.675 158.499 113.571  1.00  0.00    -0.281 N 
ATOM      7  C   UNL     1     116.348 157.255 113.443  1.00  0.00     0.058 A 
ATOM      8  C   UNL     1     116.359 156.370 114.537  1.00  0.00     0.029 A 
ATOM      9  C   UNL     1     117.053 155.161 114.467  1.00  0.00     0.023 A 
ATOM     10  C   UNL     1     117.748 154.828 113.312  1.00  0.00     0.041 A 
ATOM     11  Cl  UNL     1     118.610 153.342 113.230  1.00  0.00    -0.084 Cl
ATOM     12  C   UNL     1     117.752 155.692 112.219  1.00  0.00     0.033 A 
ATOM     13  C   UNL     1     117.050 156.910 112.268  1.00  0.00     0.026 A 
ATOM     14  C   UNL     1     117.015 157.728 111.012  1.00  0.00     0.076 C 
ATOM     15  N   UNL     1     117.095 159.010 110.936  1.00  0.00    -0.276 NA
ATOM     16  C   UNL     1     117.270 159.804 112.144  1.00  0.00     0.220 C 
ENDROOT
BRANCH  14  17
ATOM     17  C   UNL     1     116.824 157.005 109.728  1.00  0.00     0.019 A 
ATOM     18  C   UNL     1     115.581 156.403 109.494  1.00  0.00     0.012 A 
ATOM     19  C   UNL     1     117.835 156.941 108.762  1.00  0.00     0.050 A 
ATOM     20  C   UNL     1     115.353 155.728 108.295  1.00  0.00     0.001 A 
ATOM     21  C   UNL     1     117.597 156.261 107.564  1.00  0.00     0.021 A 
ATOM     22  C   UNL     1     116.360 155.656 107.332  1.00  0.00     0.002 A 
ATOM     23  Cl  UNL     1     119.402 157.619 109.014  1.00  0.00    -0.084 Cl
ENDBRANCH  14  17
TORSDOF 1
ENDMDL
MODEL 5
REMARK VINA RESULT:    -7.822      4.466      7.353
REMARK INTER + INTRA:          -8.347
REMARK INTER:                  -7.727
REMARK INTRA:                  -0.620
REMARK UNBOUND:                -0.068
REMARK SMILES Cc1nnc2n1-c1ccc(Cl)cc1C(c1ccccc1Cl)=NC2
REMARK SMILES IDX 1 1 2 2 3 3 4 4 5 5 6 6 7 7 8 8 9 9 10 10 11 11 12 12 13 13
REMARK SMILES IDX 14 14 22 15 23 16 15 17 16 18 20 19 17 20 19 21 18 22 21 23
REMARK H PARENT
ROOT
ATOM      1  C   UNL     1     115.959 153.909 117.029  1.00  0.00     0.090 C 
ATOM      2  C   UNL     1     116.331 155.204 117.646  1.00  0.00     0.134 A 
ATOM      3  N   UNL     1     116.359 155.418 118.946  1.00  0.00    -0.135 NA
ATOM      4  N   UNL     1     116.590 156.747 119.156  1.00  0.00    -0.133 NA
ATOM      5  C   UNL     1     116.704 157.330 117.983  1.00  0.00     0.159 A 
ATOM      6  N   UNL     1     116.592 156.393 116.979  1.00  0.00    -0.281 N 
ATOM      7  C   UNL     1     116.781 156.637 115.594  1.00  0.00     0.058 A 
ATOM      8  C   UNL     1     117.373 155.640 114.800  1.00  0.00     0.029 A 
ATOM      9  C   UNL     1     117.622 155.862 113.444  1.00  0.00     0.023 A 
ATOM     10  C   UNL     1     117.291 157.084 112.872  1.00  0.00     0.041 A 
ATOM     11  Cl  UNL     1     117.607 157.360 111.205  1.00  0.00    -0.084 Cl
ATOM     12  C   UNL     1     116.706 158.086 113.642  1.00  0.00     0.033 A 
ATOM     13  C   UNL     1     116.439 157.875 115.007  1.00  0.00     0.026 A 
ATOM     14  C   UNL     1     115.709 158.963 115.735  1.00  0.00     0.076 C 
ATOM     15  N   UNL     1     115.933 159.357 116.940  1.00  0.00    -0.276 NA
ATOM     16  C   UNL     1     117.005 158.752 117.718  1.00  0.00     0.220 C 
ENDROOT
BRANCH  14  17
ATOM     17  C   UNL     1     114.586 159.630 115.025  1.00  0.00     0.019 A 
ATOM     18  C   UNL     1     114.830 160.882 114.445  1.00  0.00     0.012 A 
ATOM     19  C   UNL     1     113.328 159.028 114.907  1.00  0.00     0.050 A 
ATOM     20  C   UNL     1     113.809 161.537 113.756  1.00  0.00     0.001 A 
ATOM     21  C   UNL     1     112.311 159.693 114.216  1.00  0.00     0.021 A 
ATOM     22  C   UNL     1     112.552 160.944 113.642  1.00  0.00     0.002 A 
ATOM     23  Cl  UNL     1     112.954 157.512 115.642  1.00  0.00    -0.084 Cl
ENDBRANCH  14  17
TORSDOF 1
ENDMDL
MODEL 6
REMARK VINA RESULT:    -7.703      4.421      7.156
REMARK INTER + INTRA:          -8.221
REMARK INTER:                  -7.661
REMARK INTRA:                  -0.560
REMARK UNBOUND:                -0.068
REMARK SMILES Cc1nnc2n1-c1ccc(Cl)cc1C(c1ccccc1Cl)=NC2
REMARK SMILES IDX 1 1 2 2 3 3 4 4 5 5 6 6 7 7 8 8 9 9 10 10 11 11 12 12 13 13
REMARK SMILES IDX 14 14 22 15 23 16 15 17 16 18 20 19 17 20 19 21 18 22 21 23
REMARK H PARENT
ROOT
ATOM      1  C   UNL     1     116.098 154.043 117.283  1.00  0.00     0.090 C 
ATOM      2  C   UNL     1     116.439 155.407 117.753  1.00  0.00     0.134 A 
ATOM      3  N   UNL     1     116.561 155.739 119.022  1.00  0.00    -0.135 NA
ATOM      4  N   UNL     1     116.726 157.092 119.097  1.00  0.00    -0.133 NA
ATOM      5  C   UNL     1     116.708 157.572 117.873  1.00  0.00     0.159 A 
ATOM      6  N   UNL     1     116.571 156.543 116.967  1.00  0.00    -0.281 N 
ATOM      7  C   UNL     1     116.631 156.671 115.554  1.00  0.00     0.058 A 
ATOM      8  C   UNL     1     117.217 155.639 114.800  1.00  0.00     0.029 A 
ATOM      9  C   UNL     1     117.339 155.751 113.414  1.00  0.00     0.023 A 
ATOM     10  C   UNL     1     116.889 156.896 112.771  1.00  0.00     0.041 A 
ATOM     11  Cl  UNL     1     117.049 157.037 111.064  1.00  0.00    -0.084 Cl
ATOM     12  C   UNL     1     116.308 157.931 113.499  1.00  0.00     0.033 A 
ATOM     13  C   UNL     1     116.167 157.831 114.896  1.00  0.00     0.026 A 
ATOM     14  C   UNL     1     115.434 158.939 115.588  1.00  0.00     0.076 C 
ATOM     15  N   UNL     1     115.731 159.452 116.731  1.00  0.00    -0.276 NA
ATOM     16  C   UNL     1     116.898 158.979 117.462  1.00  0.00     0.220 C 
ENDROOT
BRANCH  14  17
ATOM     17  C   UNL     1     114.218 159.478 114.924  1.00  0.00     0.019 A 
ATOM     18  C   UNL     1     113.000 158.829 115.164  1.00  0.00     0.012 A 
ATOM     19  C   UNL     1     114.267 160.611 114.105  1.00  0.00     0.050 A 
ATOM     20  C   UNL     1     111.831 159.310 114.573  1.00  0.00     0.001 A 
ATOM     21  C   UNL     1     113.091 161.085 113.517  1.00  0.00     0.021 A 
ATOM     22  C   UNL     1     111.877 160.435 113.750  1.00  0.00     0.002 A 
ATOM     23  Cl  UNL     1     115.745 161.422 113.734  1.00  0.00    -0.084 Cl
ENDBRANCH  14  17
TORSDOF 1
ENDMDL
MODEL 7
REMARK VINA RESULT:    -7.324      3.689      6.475
REMARK INTER + INTRA:          -7.820
REMARK INTER:                  -7.198
REMARK INTRA:                  -0.622
REMARK UNBOUND:                -0.068
REMARK SMILES Cc1nnc2n1-c1ccc(Cl)cc1C(c1ccccc1Cl)=NC2
REMARK SMILES IDX 1 1 2 2 3 3 4 4 5 5 6 6 7 7 8 8 9 9 10 10 11 11 12 12 13 13
REMARK SMILES IDX 14 14 22 15 23 16 15 17 16 18 20 19 17 20 19 21 18 22 21 23
REMARK H PARENT
ROOT
ATOM      1  C   UNL     1     116.471 163.677 113.582  1.00  0.00     0.090 C 
ATOM      2  C   UNL     1     115.174 162.978 113.740  1.00  0.00     0.134 A 
ATOM      3  N   UNL     1     114.061 163.569 114.127  1.00  0.00    -0.135 NA
ATOM      4  N   UNL     1     113.108 162.611 114.313  1.00  0.00    -0.133 NA
ATOM      5  C   UNL     1     113.646 161.443 114.034  1.00  0.00     0.159 A 
ATOM      6  N   UNL     1     114.949 161.613 113.621  1.00  0.00    -0.281 N 
ATOM      7  C   UNL     1     115.801 160.590 113.127  1.00  0.00     0.058 A 
ATOM      8  C   UNL     1     116.714 160.898 112.103  1.00  0.00     0.029 A 
ATOM      9  C   UNL     1     117.532 159.908 111.557  1.00  0.00     0.023 A 
ATOM     10  C   UNL     1     117.440 158.602 112.020  1.00  0.00     0.041 A 
ATOM     11  Cl  UNL     1     118.442 157.380 111.340  1.00  0.00    -0.084 Cl
ATOM     12  C   UNL     1     116.540 158.275 113.032  1.00  0.00     0.033 A 
ATOM     13  C   UNL     1     115.715 159.263 113.601  1.00  0.00     0.026 A 
ATOM     14  C   UNL     1     114.856 158.850 114.757  1.00  0.00     0.076 C 
ATOM     15  N   UNL     1     113.647 159.232 114.983  1.00  0.00    -0.276 NA
ATOM     16  C   UNL     1     112.977 160.126 114.048  1.00  0.00     0.220 C 
ENDROOT
BRANCH  14  17
ATOM     17  C   UNL     1     115.459 157.949 115.773  1.00  0.00     0.019 A 
ATOM     18  C   UNL     1     116.272 158.524 116.758  1.00  0.00     0.012 A 
ATOM     19  C   UNL     1     115.211 156.571 115.776  1.00  0.00     0.050 A 
ATOM     20  C   UNL     1     116.846 157.718 117.741  1.00  0.00     0.001 A 
ATOM     21  C   UNL     1     115.792 155.771 116.764  1.00  0.00     0.021 A 
ATOM     22  C   UNL     1     116.608 156.343 117.743  1.00  0.00     0.002 A 
ATOM     23  Cl  UNL     1     114.260 155.799 114.560  1.00  0.00    -0.084 Cl
ENDBRANCH  14  17
TORSDOF 1
ENDMDL
MODEL 8
REMARK VINA RESULT:    -7.279      3.761      7.219
REMARK INTER + INTRA:          -7.772
REMARK INTER:                  -7.168
REMARK INTRA:                  -0.604
REMARK UNBOUND:                -0.068
REMARK SMILES Cc1nnc2n1-c1ccc(Cl)cc1C(c1ccccc1Cl)=NC2
REMARK SMILES IDX 1 1 2 2 3 3 4 4 5 5 6 6 7 7 8 8 9 9 10 10 11 11 12 12 13 13
REMARK SMILES IDX 14 14 22 15 23 16 15 17 16 18 20 19 17 20 19 21 18 22 21 23
REMARK H PARENT
ROOT
ATOM      1  C   UNL     1     116.542 156.182 111.083  1.00  0.00     0.090 C 
ATOM      2  C   UNL     1     116.550 156.384 112.551  1.00  0.00     0.134 A 
ATOM      3  N   UNL     1     116.482 155.404 113.429  1.00  0.00    -0.135 NA
ATOM      4  N   UNL     1     116.358 155.951 114.674  1.00  0.00    -0.133 NA
ATOM      5  C   UNL     1     116.356 157.260 114.544  1.00  0.00     0.159 A 
ATOM      6  N   UNL     1     116.519 157.601 113.219  1.00  0.00    -0.281 N 
ATOM      7  C   UNL     1     116.683 158.919 112.717  1.00  0.00     0.058 A 
ATOM      8  C   UNL     1     117.536 159.130 111.619  1.00  0.00     0.029 A 
ATOM      9  C   UNL     1     117.762 160.418 111.130  1.00  0.00     0.023 A 
ATOM     10  C   UNL     1     117.147 161.505 111.738  1.00  0.00     0.041 A 
ATOM     11  Cl  UNL     1     117.434 163.092 111.140  1.00  0.00    -0.084 Cl
ATOM     12  C   UNL     1     116.301 161.318 112.828  1.00  0.00     0.033 A 
ATOM     13  C   UNL     1     116.054 160.026 113.327  1.00  0.00     0.026 A 
ATOM     14  C   UNL     1     115.047 159.903 114.431  1.00  0.00     0.076 C 
ATOM     15  N   UNL     1     115.125 159.119 115.449  1.00  0.00    -0.276 NA
ATOM     16  C   UNL     1     116.291 158.264 115.625  1.00  0.00     0.220 C 
ENDROOT
BRANCH  14  17
ATOM     17  C   UNL     1     113.814 160.727 114.330  1.00  0.00     0.019 A 
ATOM     18  C   UNL     1     112.759 160.232 113.553  1.00  0.00     0.012 A 
ATOM     19  C   UNL     1     113.686 161.946 115.004  1.00  0.00     0.050 A 
ATOM     20  C   UNL     1     111.577 160.965 113.443  1.00  0.00     0.001 A 
ATOM     21  C   UNL     1     112.499 162.674 114.887  1.00  0.00     0.021 A 
ATOM     22  C   UNL     1     111.448 162.184 114.108  1.00  0.00     0.002 A 
ATOM     23  Cl  UNL     1     114.970 162.629 115.935  1.00  0.00    -0.084 Cl
ENDBRANCH  14  17
TORSDOF 1
ENDMDL
