MODEL 1
REMARK VINA RESULT:    -7.528      0.000      0.000
REMARK INTER + INTRA:          -9.564
REMARK INTER:                  -8.848
REMARK INTRA:                  -0.715
REMARK UNBOUND:                -0.715
REMARK SMILES Cc1ccc(-c2nc3ccc(C)cn3c2CC(=O)N(C)C)cc1
REMARK SMILES IDX 6 1 7 2 8 3 9 4 10 5 11 6 12 7 13 8 14 9 15 10 5 11 2 12
REMARK SMILES IDX 3 13 23 14 4 15 22 16 1 17 16 18 17 19 18 20 19 21 20 22
REMARK SMILES IDX 21 23
REMARK H PARENT
ROOT
ATOM      1  C   UNL     1     143.809  96.088 138.632  1.00  0.00     0.093 A 
ATOM      2  N   UNL     1     144.776  95.145 138.383  1.00  0.00    -0.228 NA
ATOM      3  C   UNL     1     144.979  95.186 137.086  1.00  0.00     0.137 A 
ATOM      4  C   UNL     1     145.841  94.416 136.257  1.00  0.00     0.048 C 
ATOM      5  C   UNL     1     145.851  94.618 134.927  1.00  0.00     0.009 C 
ATOM      6  C   UNL     1     144.992  95.617 134.298  1.00  0.00    -0.034 C 
ATOM      7  C   UNL     1     145.060  95.768 132.812  1.00  0.00     0.046 C 
ATOM      8  C   UNL     1     144.184  96.353 135.087  1.00  0.00     0.096 C 
ATOM      9  N   UNL     1     144.185  96.150 136.470  1.00  0.00    -0.303 N 
ATOM     10  C   UNL     1     143.471  96.783 137.479  1.00  0.00     0.060 A 
ENDROOT
BRANCH   1  11
ATOM     11  C   UNL     1     143.295  96.306 139.971  1.00  0.00     0.002 A 
ATOM     12  C   UNL     1     142.349  96.742 142.588  1.00  0.00    -0.051 A 
ATOM     13  C   UNL     1     143.664  97.076 142.245  1.00  0.00     0.004 A 
ATOM     14  C   UNL     1     141.510  96.191 141.613  1.00  0.00     0.004 A 
ATOM     15  C   UNL     1     144.135  96.848 140.949  1.00  0.00     0.011 A 
ATOM     16  C   UNL     1     141.983  95.965 140.317  1.00  0.00     0.011 A 
ATOM     17  C   UNL     1     141.833  97.012 143.971  1.00  0.00     0.044 C 
ENDBRANCH   1  11
BRANCH  10  18
ATOM     18  C   UNL     1     142.564  97.951 137.245  1.00  0.00     0.157 C 
BRANCH  18  19
ATOM     19  C   UNL     1     141.239  97.522 136.616  1.00  0.00     0.228 C 
ATOM     20  O   UNL     1     140.460  96.829 137.278  1.00  0.00    -0.274 OA
ATOM     21  N   UNL     1     140.943  97.918 135.319  1.00  0.00    -0.348 N 
ATOM     22  C   UNL     1     141.787  98.762 134.488  1.00  0.00     0.146 C 
ATOM     23  C   UNL     1     139.754  97.384 134.674  1.00  0.00     0.146 C 
ENDBRANCH  18  19
ENDBRANCH  10  18
TORSDOF 3
ENDMDL
MODEL 2
REMARK VINA RESULT:    -7.417      1.142      1.346
REMARK INTER + INTRA:          -9.433
REMARK INTER:                  -8.703
REMARK INTRA:                  -0.730
REMARK UNBOUND:                -0.715
REMARK SMILES Cc1ccc(-c2nc3ccc(C)cn3c2CC(=O)N(C)C)cc1
REMARK SMILES IDX 6 1 7 2 8 3 9 4 10 5 11 6 12 7 13 8 14 9 15 10 5 11 2 12
REMARK SMILES IDX 3 13 23 14 4 15 22 16 1 17 16 18 17 19 18 20 19 21 20 22
REMARK SMILES IDX 21 23
REMARK H PARENT
ROOT
ATOM      1  C   UNL     1     143.919  95.359 138.834  1.00  0.00     0.093 A 
ATOM      2  N   UNL     1     145.271  95.163 138.694  1.00  0.00    -0.228 NA
ATOM      3  C   UNL     1     145.463  94.954 137.412  1.00  0.00     0.137 A 
ATOM      4  C   UNL     1     146.653  94.662 136.688  1.00  0.00     0.048 C 
ATOM      5  C   UNL     1     146.596  94.447 135.361  1.00  0.00     0.009 C 
ATOM      6  C   UNL     1     145.333  94.505 134.630  1.00  0.00    -0.034 C 
ATOM      7  C   UNL     1     145.360  94.244 133.158  1.00  0.00     0.046 C 
ATOM      8  C   UNL     1     144.210  94.793 135.317  1.00  0.00     0.096 C 
ATOM      9  N   UNL     1     144.273  95.027 136.693  1.00  0.00    -0.303 N 
ATOM     10  C   UNL     1     143.277  95.356 137.603  1.00  0.00     0.060 A 
ENDROOT
BRANCH   1  11
ATOM     11  C   UNL     1     143.320  95.589 140.135  1.00  0.00     0.002 A 
ATOM     12  C   UNL     1     142.198  96.072 142.673  1.00  0.00    -0.051 A 
ATOM     13  C   UNL     1     143.223  96.890 142.184  1.00  0.00     0.004 A 
ATOM     14  C   UNL     1     141.737  95.013 141.883  1.00  0.00     0.004 A 
ATOM     15  C   UNL     1     143.786  96.641 140.930  1.00  0.00     0.011 A 
ATOM     16  C   UNL     1     142.301  94.766 140.628  1.00  0.00     0.011 A 
ATOM     17  C   UNL     1     141.573  96.354 144.007  1.00  0.00     0.044 C 
ENDBRANCH   1  11
BRANCH  10  18
ATOM     18  C   UNL     1     141.856  95.622 137.215  1.00  0.00     0.157 C 
BRANCH  18  19
ATOM     19  C   UNL     1     141.656  97.066 136.756  1.00  0.00     0.228 C 
ATOM     20  O   UNL     1     142.296  97.964 137.313  1.00  0.00    -0.274 OA
ATOM     21  N   UNL     1     140.761  97.335 135.729  1.00  0.00    -0.348 N 
ATOM     22  C   UNL     1     139.999  96.334 135.000  1.00  0.00     0.146 C 
ATOM     23  C   UNL     1     140.464  98.719 135.399  1.00  0.00     0.146 C 
ENDBRANCH  18  19
ENDBRANCH  10  18
TORSDOF 3
ENDMDL
MODEL 3
REMARK VINA RESULT:    -7.196      2.402      4.935
REMARK INTER + INTRA:          -9.173
REMARK INTER:                  -8.498
REMARK INTRA:                  -0.675
REMARK UNBOUND:                -0.715
REMARK SMILES Cc1ccc(-c2nc3ccc(C)cn3c2CC(=O)N(C)C)cc1
REMARK SMILES IDX 6 1 7 2 8 3 9 4 10 5 11 6 12 7 13 8 14 9 15 10 5 11 2 12
REMARK SMILES IDX 3 13 23 14 4 15 22 16 1 17 16 18 17 19 18 20 19 21 20 22
REMARK SMILES IDX 21 23
REMARK H PARENT
ROOT
ATOM      1  C   UNL     1     141.332  97.718 136.473  1.00  0.00     0.093 A 
ATOM      2  N   UNL     1     140.467  98.785 136.437  1.00  0.00    -0.228 NA
ATOM      3  C   UNL     1     140.247  99.013 135.163  1.00  0.00     0.137 A 
ATOM      4  C   UNL     1     139.462 100.011 134.521  1.00  0.00     0.048 C 
ATOM      5  C   UNL     1     139.416 100.069 133.177  1.00  0.00     0.009 C 
ATOM      6  C   UNL     1     140.158  99.126 132.345  1.00  0.00    -0.034 C 
ATOM      7  C   UNL     1     140.057  99.269 130.860  1.00  0.00     0.046 C 
ATOM      8  C   UNL     1     140.891  98.174 132.956  1.00  0.00     0.096 C 
ATOM      9  N   UNL     1     140.927  98.109 134.351  1.00  0.00    -0.303 N 
ATOM     10  C   UNL     1     141.581  97.225 135.200  1.00  0.00     0.060 A 
ENDROOT
BRANCH   1  11
ATOM     11  C   UNL     1     141.834  97.197 137.730  1.00  0.00     0.002 A 
ATOM     12  C   UNL     1     142.759  96.192 140.194  1.00  0.00    -0.051 A 
ATOM     13  C   UNL     1     141.394  96.418 139.989  1.00  0.00     0.004 A 
ATOM     14  C   UNL     1     143.659  96.468 139.157  1.00  0.00     0.004 A 
ATOM     15  C   UNL     1     140.938  96.929 138.770  1.00  0.00     0.011 A 
ATOM     16  C   UNL     1     143.201  96.978 137.939  1.00  0.00     0.011 A 
ATOM     17  C   UNL     1     143.248  95.618 141.491  1.00  0.00     0.044 C 
ENDBRANCH   1  11
BRANCH  10  18
ATOM     18  C   UNL     1     142.356  96.037 134.721  1.00  0.00     0.157 C 
BRANCH  18  19
ATOM     19  C   UNL     1     143.689  96.446 134.095  1.00  0.00     0.228 C 
ATOM     20  O   UNL     1     144.420  97.232 134.706  1.00  0.00    -0.274 OA
ATOM     21  N   UNL     1     144.046  95.927 132.858  1.00  0.00    -0.348 N 
ATOM     22  C   UNL     1     143.262  94.970 132.093  1.00  0.00     0.146 C 
ATOM     23  C   UNL     1     145.241  96.432 132.201  1.00  0.00     0.146 C 
ENDBRANCH  18  19
ENDBRANCH  10  18
TORSDOF 3
ENDMDL
MODEL 4
REMARK VINA RESULT:    -7.055      2.464      4.810
REMARK INTER + INTRA:          -9.008
REMARK INTER:                  -8.450
REMARK INTRA:                  -0.557
REMARK UNBOUND:                -0.715
REMARK SMILES Cc1ccc(-c2nc3ccc(C)cn3c2CC(=O)N(C)C)cc1
REMARK SMILES IDX 6 1 7 2 8 3 9 4 10 5 11 6 12 7 13 8 14 9 15 10 5 11 2 12
REMARK SMILES IDX 3 13 23 14 4 15 22 16 1 17 16 18 17 19 18 20 19 21 20 22
REMARK SMILES IDX 21 23
REMARK H PARENT
ROOT
ATOM      1  C   UNL     1     141.491  97.992 136.318  1.00  0.00     0.093 A 
ATOM      2  N   UNL     1     140.359  98.769 136.262  1.00  0.00    -0.228 NA
ATOM      3  C   UNL     1     140.275  99.174 135.016  1.00  0.00     0.137 A 
ATOM      4  C   UNL     1     139.329 100.026 134.380  1.00  0.00     0.048 C 
ATOM      5  C   UNL     1     139.471 100.333 133.078  1.00  0.00     0.009 C 
ATOM      6  C   UNL     1     140.581  99.811 132.285  1.00  0.00    -0.034 C 
ATOM      7  C   UNL     1     140.667 100.212 130.847  1.00  0.00     0.046 C 
ATOM      8  C   UNL     1     141.468  98.995 132.887  1.00  0.00     0.096 C 
ATOM      9  N   UNL     1     141.312  98.668 134.237  1.00  0.00    -0.303 N 
ATOM     10  C   UNL     1     142.067  97.847 135.064  1.00  0.00     0.060 A 
ENDROOT
BRANCH   1  11
ATOM     11  C   UNL     1     141.933  97.391 137.562  1.00  0.00     0.002 A 
ATOM     12  C   UNL     1     142.843  96.216 139.955  1.00  0.00    -0.051 A 
ATOM     13  C   UNL     1     143.750  96.569 138.949  1.00  0.00     0.004 A 
ATOM     14  C   UNL     1     141.478  96.457 139.756  1.00  0.00     0.004 A 
ATOM     15  C   UNL     1     143.295  97.141 137.758  1.00  0.00     0.011 A 
ATOM     16  C   UNL     1     141.026  97.030 138.564  1.00  0.00     0.011 A 
ATOM     17  C   UNL     1     143.332  95.628 141.246  1.00  0.00     0.044 C 
ENDBRANCH   1  11
BRANCH  10  18
ATOM     18  C   UNL     1     143.230  97.033 134.585  1.00  0.00     0.157 C 
BRANCH  18  19
ATOM     19  C   UNL     1     142.797  95.637 134.139  1.00  0.00     0.228 C 
ATOM     20  O   UNL     1     142.298  94.872 134.970  1.00  0.00    -0.274 OA
ATOM     21  N   UNL     1     142.975  95.261 132.814  1.00  0.00    -0.348 N 
ATOM     22  C   UNL     1     143.518  96.114 131.768  1.00  0.00     0.146 C 
ATOM     23  C   UNL     1     142.701  93.886 132.429  1.00  0.00     0.146 C 
ENDBRANCH  18  19
ENDBRANCH  10  18
TORSDOF 3
ENDMDL
MODEL 5
REMARK VINA RESULT:    -6.860      2.247      6.579
REMARK INTER + INTRA:          -8.779
REMARK INTER:                  -7.725
REMARK INTRA:                  -1.054
REMARK UNBOUND:                -0.715
REMARK SMILES Cc1ccc(-c2nc3ccc(C)cn3c2CC(=O)N(C)C)cc1
REMARK SMILES IDX 6 1 7 2 8 3 9 4 10 5 11 6 12 7 13 8 14 9 15 10 5 11 2 12
REMARK SMILES IDX 3 13 23 14 4 15 22 16 1 17 16 18 17 19 18 20 19 21 20 22
REMARK SMILES IDX 21 23
REMARK H PARENT
ROOT
ATOM      1  C   UNL     1     141.093  97.005 136.158  1.00  0.00     0.093 A 
ATOM      2  N   UNL     1     140.652  97.571 137.329  1.00  0.00    -0.228 NA
ATOM      3  C   UNL     1     141.182  96.849 138.288  1.00  0.00     0.137 A 
ATOM      4  C   UNL     1     141.052  96.945 139.702  1.00  0.00     0.048 C 
ATOM      5  C   UNL     1     141.674  96.053 140.496  1.00  0.00     0.009 C 
ATOM      6  C   UNL     1     142.490  94.976 139.944  1.00  0.00    -0.034 C 
ATOM      7  C   UNL     1     143.136  94.024 140.899  1.00  0.00     0.046 C 
ATOM      8  C   UNL     1     142.621  94.895 138.605  1.00  0.00     0.096 C 
ATOM      9  N   UNL     1     141.984  95.829 137.783  1.00  0.00    -0.303 N 
ATOM     10  C   UNL     1     141.981  95.966 136.401  1.00  0.00     0.060 A 
ENDROOT
BRANCH   1  11
ATOM     11  C   UNL     1     140.678  97.520 134.867  1.00  0.00     0.002 A 
ATOM     12  C   UNL     1     139.908  98.566 132.367  1.00  0.00    -0.051 A 
ATOM     13  C   UNL     1     140.976  99.131 133.073  1.00  0.00     0.004 A 
ATOM     14  C   UNL     1     139.230  97.473 132.919  1.00  0.00     0.004 A 
ATOM     15  C   UNL     1     141.349  98.619 134.318  1.00  0.00     0.011 A 
ATOM     16  C   UNL     1     139.605  96.961 134.165  1.00  0.00     0.011 A 
ATOM     17  C   UNL     1     139.523  99.097 131.018  1.00  0.00     0.044 C 
ENDBRANCH   1  11
BRANCH  10  18
ATOM     18  C   UNL     1     142.802  95.115 135.482  1.00  0.00     0.157 C 
BRANCH  18  19
ATOM     19  C   UNL     1     143.884  95.929 134.773  1.00  0.00     0.228 C 
ATOM     20  O   UNL     1     144.810  96.400 135.440  1.00  0.00    -0.274 OA
ATOM     21  N   UNL     1     143.800  96.121 133.400  1.00  0.00    -0.348 N 
ATOM     22  C   UNL     1     142.764  95.571 132.540  1.00  0.00     0.146 C 
ATOM     23  C   UNL     1     144.746  97.017 132.756  1.00  0.00     0.146 C 
ENDBRANCH  18  19
ENDBRANCH  10  18
TORSDOF 3
ENDMDL
MODEL 6
REMARK VINA RESULT:    -6.128      1.943      6.550
REMARK INTER + INTRA:          -7.918
REMARK INTER:                  -6.887
REMARK INTRA:                  -1.031
REMARK UNBOUND:                -0.715
REMARK SMILES Cc1ccc(-c2nc3ccc(C)cn3c2CC(=O)N(C)C)cc1
REMARK SMILES IDX 6 1 7 2 8 3 9 4 10 5 11 6 12 7 13 8 14 9 15 10 5 11 2 12
REMARK SMILES IDX 3 13 23 14 4 15 22 16 1 17 16 18 17 19 18 20 19 21 20 22
REMARK SMILES IDX 21 23
REMARK H PARENT
ROOT
ATOM      1  C   UNL     1     143.807  95.245 135.414  1.00  0.00     0.093 A 
ATOM      2  N   UNL     1     144.795  95.580 136.307  1.00  0.00    -0.228 NA
ATOM      3  C   UNL     1     144.183  95.763 137.454  1.00  0.00     0.137 A 
ATOM      4  C   UNL     1     144.690  96.155 138.724  1.00  0.00     0.048 C 
ATOM      5  C   UNL     1     143.849  96.315 139.763  1.00  0.00     0.009 C 
ATOM      6  C   UNL     1     142.412  96.096 139.625  1.00  0.00    -0.034 C 
ATOM      7  C   UNL     1     141.551  96.306 140.829  1.00  0.00     0.046 C 
ATOM      8  C   UNL     1     141.937  95.713 138.424  1.00  0.00     0.096 C 
ATOM      9  N   UNL     1     142.813  95.536 137.350  1.00  0.00    -0.303 N 
ATOM     10  C   UNL     1     142.573  95.135 136.041  1.00  0.00     0.060 A 
ENDROOT
BRANCH   1  11
ATOM     11  C   UNL     1     144.105  94.999 134.016  1.00  0.00     0.002 A 
ATOM     12  C   UNL     1     144.702  94.468 131.314  1.00  0.00    -0.051 A 
ATOM     13  C   UNL     1     144.749  93.443 132.265  1.00  0.00     0.004 A 
ATOM     14  C   UNL     1     144.351  95.761 131.724  1.00  0.00     0.004 A 
ATOM     15  C   UNL     1     144.464  93.710 133.607  1.00  0.00     0.011 A 
ATOM     16  C   UNL     1     144.066  96.026 133.066  1.00  0.00     0.011 A 
ATOM     17  C   UNL     1     144.980  94.178 129.869  1.00  0.00     0.044 C 
ENDBRANCH   1  11
BRANCH  10  18
ATOM     18  C   UNL     1     141.230  94.704 135.540  1.00  0.00     0.157 C 
BRANCH  18  19
ATOM     19  C   UNL     1     140.492  95.848 134.845  1.00  0.00     0.228 C 
ATOM     20  O   UNL     1     140.146  96.828 135.512  1.00  0.00    -0.274 OA
ATOM     21  N   UNL     1     140.228  95.759 133.485  1.00  0.00    -0.348 N 
ATOM     22  C   UNL     1     140.633  94.659 132.623  1.00  0.00     0.146 C 
ATOM     23  C   UNL     1     139.397  96.777 132.861  1.00  0.00     0.146 C 
ENDBRANCH  18  19
ENDBRANCH  10  18
TORSDOF 3
ENDMDL
MODEL 7
REMARK VINA RESULT:    -6.110      3.317      4.293
REMARK INTER + INTRA:          -7.898
REMARK INTER:                  -6.912
REMARK INTRA:                  -0.985
REMARK UNBOUND:                -0.715
REMARK SMILES Cc1ccc(-c2nc3ccc(C)cn3c2CC(=O)N(C)C)cc1
REMARK SMILES IDX 6 1 7 2 8 3 9 4 10 5 11 6 12 7 13 8 14 9 15 10 5 11 2 12
REMARK SMILES IDX 3 13 23 14 4 15 22 16 1 17 16 18 17 19 18 20 19 21 20 22
REMARK SMILES IDX 21 23
REMARK H PARENT
ROOT
ATOM      1  C   UNL     1     143.840  96.094 134.760  1.00  0.00     0.093 A 
ATOM      2  N   UNL     1     144.546  94.973 135.123  1.00  0.00    -0.228 NA
ATOM      3  C   UNL     1     145.403  94.769 134.150  1.00  0.00     0.137 A 
ATOM      4  C   UNL     1     146.368  93.740 133.963  1.00  0.00     0.048 C 
ATOM      5  C   UNL     1     147.120  93.718 132.848  1.00  0.00     0.009 C 
ATOM      6  C   UNL     1     146.977  94.733 131.808  1.00  0.00    -0.034 C 
ATOM      7  C   UNL     1     147.848  94.627 130.597  1.00  0.00     0.046 C 
ATOM      8  C   UNL     1     146.070  95.713 131.993  1.00  0.00     0.096 C 
ATOM      9  N   UNL     1     145.298  95.740 133.157  1.00  0.00    -0.303 N 
ATOM     10  C   UNL     1     144.328  96.640 133.581  1.00  0.00     0.060 A 
ENDROOT
BRANCH   1  11
ATOM     11  C   UNL     1     142.766  96.610 135.587  1.00  0.00     0.002 A 
ATOM     12  C   UNL     1     140.720  97.633 137.231  1.00  0.00    -0.051 A 
ATOM     13  C   UNL     1     142.058  97.956 137.482  1.00  0.00     0.004 A 
ATOM     14  C   UNL     1     140.412  96.797 136.151  1.00  0.00     0.004 A 
ATOM     15  C   UNL     1     143.073  97.438 136.673  1.00  0.00     0.011 A 
ATOM     16  C   UNL     1     141.429  96.280 135.342  1.00  0.00     0.011 A 
ATOM     17  C   UNL     1     139.627  98.210 138.081  1.00  0.00     0.044 C 
ENDBRANCH   1  11
BRANCH  10  18
ATOM     18  C   UNL     1     143.978  97.891 132.837  1.00  0.00     0.157 C 
BRANCH  18  19
ATOM     19  C   UNL     1     142.746  97.697 131.953  1.00  0.00     0.228 C 
ATOM     20  O   UNL     1     142.824  96.945 130.977  1.00  0.00    -0.274 OA
ATOM     21  N   UNL     1     141.572  98.369 132.266  1.00  0.00    -0.348 N 
ATOM     22  C   UNL     1     141.388  99.241 133.416  1.00  0.00     0.146 C 
ATOM     23  C   UNL     1     140.453  98.298 131.341  1.00  0.00     0.146 C 
ENDBRANCH  18  19
ENDBRANCH  10  18
TORSDOF 3
ENDMDL
MODEL 8
REMARK VINA RESULT:    -5.982      3.141      5.511
REMARK INTER + INTRA:          -7.747
REMARK INTER:                  -7.016
REMARK INTRA:                  -0.731
REMARK UNBOUND:                -0.715
REMARK SMILES Cc1ccc(-c2nc3ccc(C)cn3c2CC(=O)N(C)C)cc1
REMARK SMILES IDX 6 1 7 2 8 3 9 4 10 5 11 6 12 7 13 8 14 9 15 10 5 11 2 12
REMARK SMILES IDX 3 13 23 14 4 15 22 16 1 17 16 18 17 19 18 20 19 21 20 22
REMARK SMILES IDX 21 23
REMARK H PARENT
ROOT
ATOM      1  C   UNL     1     141.752  95.790 134.191  1.00  0.00     0.093 A 
ATOM      2  N   UNL     1     141.224  94.644 133.650  1.00  0.00    -0.228 NA
ATOM      3  C   UNL     1     140.403  95.048 132.708  1.00  0.00     0.137 A 
ATOM      4  C   UNL     1     139.554  94.308 131.837  1.00  0.00     0.048 C 
ATOM      5  C   UNL     1     138.761  94.955 130.963  1.00  0.00     0.009 C 
ATOM      6  C   UNL     1     138.744  96.412 130.879  1.00  0.00    -0.034 C 
ATOM      7  C   UNL     1     137.825  97.048 129.885  1.00  0.00     0.046 C 
ATOM      8  C   UNL     1     139.557  97.109 131.697  1.00  0.00     0.096 C 
ATOM      9  N   UNL     1     140.388  96.435 132.596  1.00  0.00    -0.303 N 
ATOM     10  C   UNL     1     141.313  96.919 133.513  1.00  0.00     0.060 A 
ENDROOT
BRANCH   1  11
ATOM     11  C   UNL     1     142.689  95.741 135.298  1.00  0.00     0.002 A 
ATOM     12  C   UNL     1     144.473  95.679 137.477  1.00  0.00    -0.051 A 
ATOM     13  C   UNL     1     143.203  96.250 137.616  1.00  0.00     0.004 A 
ATOM     14  C   UNL     1     144.843  95.137 136.240  1.00  0.00     0.004 A 
ATOM     15  C   UNL     1     142.323  96.291 136.531  1.00  0.00     0.011 A 
ATOM     16  C   UNL     1     143.962  95.178 135.156  1.00  0.00     0.011 A 
ATOM     17  C   UNL     1     145.408  95.610 138.648  1.00  0.00     0.044 C 
ENDBRANCH   1  11
BRANCH  10  18
ATOM     18  C   UNL     1     141.669  98.367 133.644  1.00  0.00     0.157 C 
BRANCH  18  19
ATOM     19  C   UNL     1     140.576  99.155 134.366  1.00  0.00     0.228 C 
ATOM     20  O   UNL     1     140.320  98.880 135.543  1.00  0.00    -0.274 OA
ATOM     21  N   UNL     1     139.899 100.158 133.685  1.00  0.00    -0.348 N 
ATOM     22  C   UNL     1     140.166 100.567 132.315  1.00  0.00     0.146 C 
ATOM     23  C   UNL     1     138.763 100.800 134.327  1.00  0.00     0.146 C 
ENDBRANCH  18  19
ENDBRANCH  10  18
TORSDOF 3
ENDMDL
MODEL 9
REMARK VINA RESULT:    -5.977      4.870      6.046
REMARK INTER + INTRA:          -7.740
REMARK INTER:                  -6.754
REMARK INTRA:                  -0.986
REMARK UNBOUND:                -0.715
REMARK SMILES Cc1ccc(-c2nc3ccc(C)cn3c2CC(=O)N(C)C)cc1
REMARK SMILES IDX 6 1 7 2 8 3 9 4 10 5 11 6 12 7 13 8 14 9 15 10 5 11 2 12
REMARK SMILES IDX 3 13 23 14 4 15 22 16 1 17 16 18 17 19 18 20 19 21 20 22
REMARK SMILES IDX 21 23
REMARK H PARENT
ROOT
ATOM      1  C   UNL     1     142.448  97.044 133.794  1.00  0.00     0.093 A 
ATOM      2  N   UNL     1     143.796  97.264 133.649  1.00  0.00    -0.228 NA
ATOM      3  C   UNL     1     144.360  96.089 133.800  1.00  0.00     0.137 A 
ATOM      4  C   UNL     1     145.732  95.709 133.785  1.00  0.00     0.048 C 
ATOM      5  C   UNL     1     146.076  94.426 134.003  1.00  0.00     0.009 C 
ATOM      6  C   UNL     1     145.072  93.397 134.256  1.00  0.00    -0.034 C 
ATOM      7  C   UNL     1     145.545  91.999 134.497  1.00  0.00     0.046 C 
ATOM      8  C   UNL     1     143.774  93.757 134.257  1.00  0.00     0.096 C 
ATOM      9  N   UNL     1     143.418  95.088 134.020  1.00  0.00    -0.303 N 
ATOM     10  C   UNL     1     142.170  95.693 133.951  1.00  0.00     0.060 A 
ENDROOT
BRANCH   1  11
ATOM     11  C   UNL     1     141.493  98.134 133.725  1.00  0.00     0.002 A 
ATOM     12  C   UNL     1     139.622 100.238 133.643  1.00  0.00    -0.051 A 
ATOM     13  C   UNL     1     139.881  99.567 134.843  1.00  0.00     0.004 A 
ATOM     14  C   UNL     1     140.307  99.852 132.485  1.00  0.00     0.004 A 
ATOM     15  C   UNL     1     140.801  98.515 134.879  1.00  0.00     0.011 A 
ATOM     16  C   UNL     1     141.227  98.800 132.523  1.00  0.00     0.011 A 
ATOM     17  C   UNL     1     138.656 101.385 133.607  1.00  0.00     0.044 C 
ENDBRANCH   1  11
BRANCH  10  18
ATOM     18  C   UNL     1     140.878  94.942 134.043  1.00  0.00     0.157 C 
BRANCH  18  19
ATOM     19  C   UNL     1     140.170  94.867 132.691  1.00  0.00     0.228 C 
ATOM     20  O   UNL     1     140.702  94.237 131.771  1.00  0.00    -0.274 OA
ATOM     21  N   UNL     1     138.949  95.509 132.527  1.00  0.00    -0.348 N 
ATOM     22  C   UNL     1     138.240  96.238 133.567  1.00  0.00     0.146 C 
ATOM     23  C   UNL     1     138.354  95.560 131.201  1.00  0.00     0.146 C 
ENDBRANCH  18  19
ENDBRANCH  10  18
TORSDOF 3
ENDMDL
