MODEL 1
REMARK VINA RESULT:    -9.485      0.000      0.000
REMARK INTER + INTRA:         -11.017
REMARK INTER:                 -10.594
REMARK INTRA:                  -0.423
REMARK UNBOUND:                -0.423
REMARK SMILES O=C1CN=C(c2ccccc2Cl)c2cc([N+](=O)[O-])ccc2N1
REMARK SMILES IDX 1 1 2 2 3 3 4 4 5 5 13 6 14 7 15 8 19 9 20 10 21 11 22 12
REMARK SMILES IDX 6 14 7 15 11 16 8 17 10 18 9 19 12 20 16 21 17 22 18 23
REMARK H PARENT 22 13
ROOT
ATOM      1  O   UNL     1     117.049 161.726 111.575  1.00  0.00    -0.273 OA
ATOM      2  C   UNL     1     117.416 160.551 111.584  1.00  0.00     0.246 C 
ATOM      3  C   UNL     1     118.568 160.043 110.742  1.00  0.00     0.243 C 
ATOM      4  N   UNL     1     118.098 159.064 109.773  1.00  0.00    -0.274 NA
ATOM      5  C   UNL     1     117.693 157.912 110.179  1.00  0.00     0.076 C 
ATOM      6  C   UNL     1     117.575 157.462 111.601  1.00  0.00     0.031 A 
ATOM      7  C   UNL     1     117.834 156.109 111.892  1.00  0.00     0.098 A 
ATOM      8  C   UNL     1     117.566 155.600 113.167  1.00  0.00     0.270 A 
ATOM      9  C   UNL     1     117.027 156.422 114.160  1.00  0.00     0.088 A 
ATOM     10  C   UNL     1     116.783 157.767 113.876  1.00  0.00     0.034 A 
ATOM     11  C   UNL     1     117.085 158.307 112.615  1.00  0.00     0.051 A 
ATOM     12  N   UNL     1     116.841 159.681 112.471  1.00  0.00    -0.324 N 
ATOM     13  H   UNL     1     116.231 160.147 113.132  1.00  0.00     0.170 HD
ENDROOT
BRANCH   5  14
ATOM     14  C   UNL     1     117.248 156.968 109.120  1.00  0.00     0.019 A 
ATOM     15  C   UNL     1     115.924 156.511 109.166  1.00  0.00     0.012 A 
ATOM     16  C   UNL     1     118.105 156.557 108.094  1.00  0.00     0.050 A 
ATOM     17  C   UNL     1     115.462 155.633 108.187  1.00  0.00     0.001 A 
ATOM     18  C   UNL     1     117.633 155.677 107.118  1.00  0.00     0.021 A 
ATOM     19  C   UNL     1     116.315 155.215 107.165  1.00  0.00     0.002 A 
ATOM     20  Cl  UNL     1     119.756 157.053 108.015  1.00  0.00    -0.084 Cl
ENDBRANCH   5  14
BRANCH   8  21
ATOM     21  N   UNL     1     117.830 154.184 113.459  1.00  0.00     0.062 N 
ATOM     22  O   UNL     1     118.229 153.471 112.527  1.00  0.00    -0.258 OA
ATOM     23  O   UNL     1     117.644 153.792 114.618  1.00  0.00    -0.258 OA
ENDBRANCH   8  21
TORSDOF 2
ENDMDL
MODEL 2
REMARK VINA RESULT:    -8.937      3.435      6.050
REMARK INTER + INTRA:         -10.404
REMARK INTER:                 -10.622
REMARK INTRA:                   0.217
REMARK UNBOUND:                -0.423
REMARK SMILES O=C1CN=C(c2ccccc2Cl)c2cc([N+](=O)[O-])ccc2N1
REMARK SMILES IDX 1 1 2 2 3 3 4 4 5 5 13 6 14 7 15 8 19 9 20 10 21 11 22 12
REMARK SMILES IDX 6 14 7 15 11 16 8 17 10 18 9 19 12 20 16 21 17 22 18 23
REMARK H PARENT 22 13
ROOT
ATOM      1  O   UNL     1     115.739 155.935 112.262  1.00  0.00    -0.273 OA
ATOM      2  C   UNL     1     116.619 156.168 111.433  1.00  0.00     0.246 C 
ATOM      3  C   UNL     1     118.083 156.293 111.801  1.00  0.00     0.243 C 
ATOM      4  N   UNL     1     118.566 157.637 111.519  1.00  0.00    -0.274 NA
ATOM      5  C   UNL     1     118.687 158.026 110.299  1.00  0.00     0.076 C 
ATOM      6  C   UNL     1     118.305 157.251 109.078  1.00  0.00     0.031 A 
ATOM      7  C   UNL     1     119.089 157.413 107.919  1.00  0.00     0.098 A 
ATOM      8  C   UNL     1     118.674 156.853 106.705  1.00  0.00     0.270 A 
ATOM      9  C   UNL     1     117.475 156.141 106.626  1.00  0.00     0.088 A 
ATOM     10  C   UNL     1     116.704 155.969 107.778  1.00  0.00     0.034 A 
ATOM     11  C   UNL     1     117.125 156.487 109.014  1.00  0.00     0.051 A 
ATOM     12  N   UNL     1     116.289 156.203 110.104  1.00  0.00    -0.324 N 
ATOM     13  H   UNL     1     115.336 155.907 109.934  1.00  0.00     0.170 HD
ENDROOT
BRANCH   5  14
ATOM     14  C   UNL     1     119.204 159.406 110.104  1.00  0.00     0.019 A 
ATOM     15  C   UNL     1     120.373 159.565 109.347  1.00  0.00     0.012 A 
ATOM     16  C   UNL     1     118.546 160.520 110.634  1.00  0.00     0.050 A 
ATOM     17  C   UNL     1     120.887 160.842 109.130  1.00  0.00     0.001 A 
ATOM     18  C   UNL     1     119.069 161.796 110.413  1.00  0.00     0.021 A 
ATOM     19  C   UNL     1     120.238 161.956 109.663  1.00  0.00     0.002 A 
ATOM     20  Cl  UNL     1     117.129 160.378 111.611  1.00  0.00    -0.084 Cl
ENDBRANCH   5  14
BRANCH   8  21
ATOM     21  N   UNL     1     119.494 157.035 105.499  1.00  0.00     0.062 N 
ATOM     22  O   UNL     1     120.712 156.837 105.597  1.00  0.00    -0.258 OA
ATOM     23  O   UNL     1     118.915 157.369 104.457  1.00  0.00    -0.258 OA
ENDBRANCH   8  21
TORSDOF 2
ENDMDL
MODEL 3
REMARK VINA RESULT:    -8.935      3.507      5.698
REMARK INTER + INTRA:         -10.403
REMARK INTER:                 -10.283
REMARK INTRA:                  -0.120
REMARK UNBOUND:                -0.423
REMARK SMILES O=C1CN=C(c2ccccc2Cl)c2cc([N+](=O)[O-])ccc2N1
REMARK SMILES IDX 1 1 2 2 3 3 4 4 5 5 13 6 14 7 15 8 19 9 20 10 21 11 22 12
REMARK SMILES IDX 6 14 7 15 11 16 8 17 10 18 9 19 12 20 16 21 17 22 18 23
REMARK H PARENT 22 13
ROOT
ATOM      1  O   UNL     1     122.861 160.559 108.352  1.00  0.00    -0.273 OA
ATOM      2  C   UNL     1     121.715 160.111 108.300  1.00  0.00     0.246 C 
ATOM      3  C   UNL     1     120.491 160.941 108.628  1.00  0.00     0.243 C 
ATOM      4  N   UNL     1     119.804 160.398 109.790  1.00  0.00    -0.274 NA
ATOM      5  C   UNL     1     119.195 159.269 109.697  1.00  0.00     0.076 C 
ATOM      6  C   UNL     1     119.167 158.370 108.502  1.00  0.00     0.031 A 
ATOM      7  C   UNL     1     117.994 157.632 108.255  1.00  0.00     0.098 A 
ATOM      8  C   UNL     1     117.977 156.648 107.260  1.00  0.00     0.270 A 
ATOM      9  C   UNL     1     119.125 156.378 106.511  1.00  0.00     0.088 A 
ATOM     10  C   UNL     1     120.285 157.120 106.746  1.00  0.00     0.034 A 
ATOM     11  C   UNL     1     120.309 158.140 107.711  1.00  0.00     0.051 A 
ATOM     12  N   UNL     1     121.517 158.845 107.816  1.00  0.00    -0.324 N 
ATOM     13  H   UNL     1     122.361 158.441 107.430  1.00  0.00     0.170 HD
ENDROOT
BRANCH   5  14
ATOM     14  C   UNL     1     118.504 158.799 110.927  1.00  0.00     0.019 A 
ATOM     15  C   UNL     1     118.741 157.484 111.348  1.00  0.00     0.012 A 
ATOM     16  C   UNL     1     117.658 159.637 111.661  1.00  0.00     0.050 A 
ATOM     17  C   UNL     1     118.123 157.005 112.502  1.00  0.00     0.001 A 
ATOM     18  C   UNL     1     117.042 159.149 112.815  1.00  0.00     0.021 A 
ATOM     19  C   UNL     1     117.273 157.835 113.234  1.00  0.00     0.002 A 
ATOM     20  Cl  UNL     1     117.295 161.249 111.163  1.00  0.00    -0.084 Cl
ENDBRANCH   5  14
BRANCH   8  21
ATOM     21  N   UNL     1     116.751 155.875 107.016  1.00  0.00     0.062 N 
ATOM     22  O   UNL     1     115.836 155.974 107.846  1.00  0.00    -0.258 OA
ATOM     23  O   UNL     1     116.705 155.179 105.994  1.00  0.00    -0.258 OA
ENDBRANCH   8  21
TORSDOF 2
ENDMDL
MODEL 4
REMARK VINA RESULT:    -8.662      1.735      2.165
REMARK INTER + INTRA:         -10.098
REMARK INTER:                  -9.652
REMARK INTRA:                  -0.446
REMARK UNBOUND:                -0.423
REMARK SMILES O=C1CN=C(c2ccccc2Cl)c2cc([N+](=O)[O-])ccc2N1
REMARK SMILES IDX 1 1 2 2 3 3 4 4 5 5 13 6 14 7 15 8 19 9 20 10 21 11 22 12
REMARK SMILES IDX 6 14 7 15 11 16 8 17 10 18 9 19 12 20 16 21 17 22 18 23
REMARK H PARENT 22 13
ROOT
ATOM      1  O   UNL     1     119.543 161.661 109.832  1.00  0.00    -0.273 OA
ATOM      2  C   UNL     1     119.325 160.498 110.172  1.00  0.00     0.246 C 
ATOM      3  C   UNL     1     120.240 159.348 109.805  1.00  0.00     0.243 C 
ATOM      4  N   UNL     1     119.544 158.395 108.953  1.00  0.00    -0.274 NA
ATOM      5  C   UNL     1     118.595 157.678 109.445  1.00  0.00     0.076 C 
ATOM      6  C   UNL     1     118.048 157.760 110.835  1.00  0.00     0.031 A 
ATOM      7  C   UNL     1     117.607 156.570 111.444  1.00  0.00     0.098 A 
ATOM      8  C   UNL     1     116.926 156.616 112.666  1.00  0.00     0.270 A 
ATOM      9  C   UNL     1     116.665 157.840 113.287  1.00  0.00     0.088 A 
ATOM     10  C   UNL     1     117.115 159.019 112.689  1.00  0.00     0.034 A 
ATOM     11  C   UNL     1     117.836 158.991 111.485  1.00  0.00     0.051 A 
ATOM     12  N   UNL     1     118.276 160.237 111.014  1.00  0.00    -0.324 N 
ATOM     13  H   UNL     1     117.846 161.081 111.371  1.00  0.00     0.170 HD
ENDROOT
BRANCH   5  14
ATOM     14  C   UNL     1     117.953 156.719 108.508  1.00  0.00     0.019 A 
ATOM     15  C   UNL     1     118.765 155.748 107.908  1.00  0.00     0.012 A 
ATOM     16  C   UNL     1     116.580 156.758 108.242  1.00  0.00     0.050 A 
ATOM     17  C   UNL     1     118.203 154.822 107.031  1.00  0.00     0.001 A 
ATOM     18  C   UNL     1     116.025 155.827 107.361  1.00  0.00     0.021 A 
ATOM     19  C   UNL     1     116.835 154.861 106.757  1.00  0.00     0.002 A 
ATOM     20  Cl  UNL     1     115.542 157.960 108.919  1.00  0.00    -0.084 Cl
ENDBRANCH   5  14
BRANCH   8  21
ATOM     21  N   UNL     1     116.461 155.369 113.290  1.00  0.00     0.062 N 
ATOM     22  O   UNL     1     115.241 155.233 113.461  1.00  0.00    -0.258 OA
ATOM     23  O   UNL     1     117.315 154.529 113.601  1.00  0.00    -0.258 OA
ENDBRANCH   8  21
TORSDOF 2
ENDMDL
MODEL 5
REMARK VINA RESULT:    -8.232      2.901      5.816
REMARK INTER + INTRA:          -9.618
REMARK INTER:                 -10.236
REMARK INTRA:                   0.619
REMARK UNBOUND:                -0.423
REMARK SMILES O=C1CN=C(c2ccccc2Cl)c2cc([N+](=O)[O-])ccc2N1
REMARK SMILES IDX 1 1 2 2 3 3 4 4 5 5 13 6 14 7 15 8 19 9 20 10 21 11 22 12
REMARK SMILES IDX 6 14 7 15 11 16 8 17 10 18 9 19 12 20 16 21 17 22 18 23
REMARK H PARENT 22 13
ROOT
ATOM      1  O   UNL     1     116.178 154.853 113.792  1.00  0.00    -0.273 OA
ATOM      2  C   UNL     1     116.910 155.488 113.033  1.00  0.00     0.246 C 
ATOM      3  C   UNL     1     118.088 156.306 113.520  1.00  0.00     0.243 C 
ATOM      4  N   UNL     1     117.885 157.717 113.227  1.00  0.00    -0.274 NA
ATOM      5  C   UNL     1     117.918 158.123 112.006  1.00  0.00     0.076 C 
ATOM      6  C   UNL     1     118.078 157.268 110.789  1.00  0.00     0.031 A 
ATOM      7  C   UNL     1     118.792 157.796 109.697  1.00  0.00     0.098 A 
ATOM      8  C   UNL     1     118.818 157.113 108.476  1.00  0.00     0.270 A 
ATOM      9  C   UNL     1     118.127 155.908 108.323  1.00  0.00     0.088 A 
ATOM     10  C   UNL     1     117.430 155.377 109.410  1.00  0.00     0.034 A 
ATOM     11  C   UNL     1     117.427 156.027 110.656  1.00  0.00     0.051 A 
ATOM     12  N   UNL     1     116.733 155.366 111.680  1.00  0.00    -0.324 N 
ATOM     13  H   UNL     1     116.063 154.646 111.441  1.00  0.00     0.170 HD
ENDROOT
BRANCH   5  14
ATOM     14  C   UNL     1     117.719 159.582 111.800  1.00  0.00     0.019 A 
ATOM     15  C   UNL     1     118.593 160.244 110.927  1.00  0.00     0.012 A 
ATOM     16  C   UNL     1     116.685 160.280 112.432  1.00  0.00     0.050 A 
ATOM     17  C   UNL     1     118.436 161.610 110.696  1.00  0.00     0.001 A 
ATOM     18  C   UNL     1     116.536 161.648 112.195  1.00  0.00     0.021 A 
ATOM     19  C   UNL     1     117.411 162.312 111.330  1.00  0.00     0.002 A 
ATOM     20  Cl  UNL     1     115.608 159.524 113.550  1.00  0.00    -0.084 Cl
ENDBRANCH   5  14
BRANCH   8  21
ATOM     21  N   UNL     1     119.558 157.677 107.339  1.00  0.00     0.062 N 
ATOM     22  O   UNL     1     120.560 157.064 106.945  1.00  0.00    -0.258 OA
ATOM     23  O   UNL     1     119.132 158.727 106.840  1.00  0.00    -0.258 OA
ENDBRANCH   8  21
TORSDOF 2
ENDMDL
MODEL 6
REMARK VINA RESULT:    -8.166      3.243      6.415
REMARK INTER + INTRA:          -9.544
REMARK INTER:                  -9.806
REMARK INTRA:                   0.262
REMARK UNBOUND:                -0.423
REMARK SMILES O=C1CN=C(c2ccccc2Cl)c2cc([N+](=O)[O-])ccc2N1
REMARK SMILES IDX 1 1 2 2 3 3 4 4 5 5 13 6 14 7 15 8 19 9 20 10 21 11 22 12
REMARK SMILES IDX 6 14 7 15 11 16 8 17 10 18 9 19 12 20 16 21 17 22 18 23
REMARK H PARENT 22 13
ROOT
ATOM      1  O   UNL     1     116.639 154.495 106.701  1.00  0.00    -0.273 OA
ATOM      2  C   UNL     1     117.423 155.232 107.300  1.00  0.00     0.246 C 
ATOM      3  C   UNL     1     118.041 154.864 108.633  1.00  0.00     0.243 C 
ATOM      4  N   UNL     1     117.614 155.795 109.667  1.00  0.00    -0.274 NA
ATOM      5  C   UNL     1     118.034 157.011 109.640  1.00  0.00     0.076 C 
ATOM      6  C   UNL     1     118.893 157.630 108.584  1.00  0.00     0.031 A 
ATOM      7  C   UNL     1     119.825 158.609 108.979  1.00  0.00     0.098 A 
ATOM      8  C   UNL     1     120.524 159.345 108.015  1.00  0.00     0.270 A 
ATOM      9  C   UNL     1     120.297 159.126 106.654  1.00  0.00     0.088 A 
ATOM     10  C   UNL     1     119.383 158.145 106.262  1.00  0.00     0.034 A 
ATOM     11  C   UNL     1     118.703 157.368 107.214  1.00  0.00     0.051 A 
ATOM     12  N   UNL     1     117.851 156.383 106.694  1.00  0.00    -0.324 N 
ATOM     13  H   UNL     1     117.551 156.447 105.729  1.00  0.00     0.170 HD
ENDROOT
BRANCH   5  14
ATOM     14  C   UNL     1     117.563 157.887 110.745  1.00  0.00     0.019 A 
ATOM     15  C   UNL     1     117.261 159.220 110.438  1.00  0.00     0.012 A 
ATOM     16  C   UNL     1     117.400 157.405 112.048  1.00  0.00     0.050 A 
ATOM     17  C   UNL     1     116.805 160.074 111.442  1.00  0.00     0.001 A 
ATOM     18  C   UNL     1     116.944 158.268 113.047  1.00  0.00     0.021 A 
ATOM     19  C   UNL     1     116.649 159.600 112.744  1.00  0.00     0.002 A 
ATOM     20  Cl  UNL     1     117.799 155.785 112.490  1.00  0.00    -0.084 Cl
ENDBRANCH   5  14
BRANCH   8  21
ATOM     21  N   UNL     1     121.488 160.371 108.436  1.00  0.00     0.062 N 
ATOM     22  O   UNL     1     122.689 160.150 108.231  1.00  0.00    -0.258 OA
ATOM     23  O   UNL     1     121.039 161.397 108.964  1.00  0.00    -0.258 OA
ENDBRANCH   8  21
TORSDOF 2
ENDMDL
MODEL 7
REMARK VINA RESULT:    -7.352      1.637      2.193
REMARK INTER + INTRA:          -8.634
REMARK INTER:                  -8.182
REMARK INTRA:                  -0.452
REMARK UNBOUND:                -0.423
REMARK SMILES O=C1CN=C(c2ccccc2Cl)c2cc([N+](=O)[O-])ccc2N1
REMARK SMILES IDX 1 1 2 2 3 3 4 4 5 5 13 6 14 7 15 8 19 9 20 10 21 11 22 12
REMARK SMILES IDX 6 14 7 15 11 16 8 17 10 18 9 19 12 20 16 21 17 22 18 23
REMARK H PARENT 22 13
ROOT
ATOM      1  O   UNL     1     114.300 160.970 113.331  1.00  0.00    -0.273 OA
ATOM      2  C   UNL     1     115.114 160.046 113.346  1.00  0.00     0.246 C 
ATOM      3  C   UNL     1     116.561 160.218 112.932  1.00  0.00     0.243 C 
ATOM      4  N   UNL     1     116.855 159.408 111.760  1.00  0.00    -0.274 NA
ATOM      5  C   UNL     1     116.883 158.126 111.864  1.00  0.00     0.076 C 
ATOM      6  C   UNL     1     116.564 157.327 113.088  1.00  0.00     0.031 A 
ATOM      7  C   UNL     1     117.280 156.134 113.305  1.00  0.00     0.098 A 
ATOM      8  C   UNL     1     116.900 155.263 114.333  1.00  0.00     0.270 A 
ATOM      9  C   UNL     1     115.802 155.559 115.144  1.00  0.00     0.088 A 
ATOM     10  C   UNL     1     115.100 156.748 114.936  1.00  0.00     0.034 A 
ATOM     11  C   UNL     1     115.491 157.655 113.938  1.00  0.00     0.051 A 
ATOM     12  N   UNL     1     114.737 158.836 113.864  1.00  0.00    -0.324 N 
ATOM     13  H   UNL     1     113.825 158.869 114.303  1.00  0.00     0.170 HD
ENDROOT
BRANCH   5  14
ATOM     14  C   UNL     1     117.209 157.379 110.621  1.00  0.00     0.019 A 
ATOM     15  C   UNL     1     116.246 156.495 110.117  1.00  0.00     0.012 A 
ATOM     16  C   UNL     1     118.426 157.557 109.953  1.00  0.00     0.050 A 
ATOM     17  C   UNL     1     116.506 155.782 108.947  1.00  0.00     0.001 A 
ATOM     18  C   UNL     1     118.678 156.838 108.783  1.00  0.00     0.021 A 
ATOM     19  C   UNL     1     117.721 155.951 108.282  1.00  0.00     0.002 A 
ATOM     20  Cl  UNL     1     119.665 158.598 110.554  1.00  0.00    -0.084 Cl
ENDBRANCH   5  14
BRANCH   8  21
ATOM     21  N   UNL     1     117.648 154.016 114.547  1.00  0.00     0.062 N 
ATOM     22  O   UNL     1     117.464 153.412 115.613  1.00  0.00    -0.258 OA
ATOM     23  O   UNL     1     118.410 153.642 113.646  1.00  0.00    -0.258 OA
ENDBRANCH   8  21
TORSDOF 2
ENDMDL
MODEL 8
REMARK VINA RESULT:    -6.905      4.184      6.427
REMARK INTER + INTRA:          -8.135
REMARK INTER:                  -7.462
REMARK INTRA:                  -0.674
REMARK UNBOUND:                -0.423
REMARK SMILES O=C1CN=C(c2ccccc2Cl)c2cc([N+](=O)[O-])ccc2N1
REMARK SMILES IDX 1 1 2 2 3 3 4 4 5 5 13 6 14 7 15 8 19 9 20 10 21 11 22 12
REMARK SMILES IDX 6 14 7 15 11 16 8 17 10 18 9 19 12 20 16 21 17 22 18 23
REMARK H PARENT 22 13
ROOT
ATOM      1  O   UNL     1     116.641 156.615 119.123  1.00  0.00    -0.273 OA
ATOM      2  C   UNL     1     116.794 156.981 117.958  1.00  0.00     0.246 C 
ATOM      3  C   UNL     1     117.234 158.382 117.586  1.00  0.00     0.243 C 
ATOM      4  N   UNL     1     116.192 159.060 116.830  1.00  0.00    -0.274 NA
ATOM      5  C   UNL     1     115.918 158.670 115.635  1.00  0.00     0.076 C 
ATOM      6  C   UNL     1     116.522 157.503 114.921  1.00  0.00     0.031 A 
ATOM      7  C   UNL     1     116.713 157.603 113.530  1.00  0.00     0.098 A 
ATOM      8  C   UNL     1     117.107 156.482 112.790  1.00  0.00     0.270 A 
ATOM      9  C   UNL     1     117.300 155.250 113.420  1.00  0.00     0.088 A 
ATOM     10  C   UNL     1     117.124 155.153 114.802  1.00  0.00     0.034 A 
ATOM     11  C   UNL     1     116.771 156.277 115.568  1.00  0.00     0.051 A 
ATOM     12  N   UNL     1     116.675 156.061 116.950  1.00  0.00    -0.324 N 
ATOM     13  H   UNL     1     116.583 155.115 117.298  1.00  0.00     0.170 HD
ENDROOT
BRANCH   5  14
ATOM     14  C   UNL     1     114.854 159.431 114.930  1.00  0.00     0.019 A 
ATOM     15  C   UNL     1     115.222 160.608 114.264  1.00  0.00     0.012 A 
ATOM     16  C   UNL     1     113.526 158.989 114.905  1.00  0.00     0.050 A 
ATOM     17  C   UNL     1     114.258 161.347 113.581  1.00  0.00     0.001 A 
ATOM     18  C   UNL     1     112.567 159.737 114.219  1.00  0.00     0.021 A 
ATOM     19  C   UNL     1     112.932 160.914 113.559  1.00  0.00     0.002 A 
ATOM     20  Cl  UNL     1     113.009 157.572 115.745  1.00  0.00    -0.084 Cl
ENDBRANCH   5  14
BRANCH   8  21
ATOM     21  N   UNL     1     117.294 156.594 111.337  1.00  0.00     0.062 N 
ATOM     22  O   UNL     1     118.315 157.168 110.933  1.00  0.00    -0.258 OA
ATOM     23  O   UNL     1     116.424 156.103 110.607  1.00  0.00    -0.258 OA
ENDBRANCH   8  21
TORSDOF 2
ENDMDL
MODEL 9
REMARK VINA RESULT:    -6.790      4.591      6.375
REMARK INTER + INTRA:          -8.006
REMARK INTER:                  -7.309
REMARK INTRA:                  -0.698
REMARK UNBOUND:                -0.423
REMARK SMILES O=C1CN=C(c2ccccc2Cl)c2cc([N+](=O)[O-])ccc2N1
REMARK SMILES IDX 1 1 2 2 3 3 4 4 5 5 13 6 14 7 15 8 19 9 20 10 21 11 22 12
REMARK SMILES IDX 6 14 7 15 11 16 8 17 10 18 9 19 12 20 16 21 17 22 18 23
REMARK H PARENT 22 13
ROOT
ATOM      1  O   UNL     1     113.762 160.495 118.118  1.00  0.00    -0.273 OA
ATOM      2  C   UNL     1     114.601 159.601 118.012  1.00  0.00     0.246 C 
ATOM      3  C   UNL     1     115.979 159.831 117.426  1.00  0.00     0.243 C 
ATOM      4  N   UNL     1     116.153 159.053 116.209  1.00  0.00    -0.274 NA
ATOM      5  C   UNL     1     116.235 157.771 116.281  1.00  0.00     0.076 C 
ATOM      6  C   UNL     1     116.097 156.940 117.517  1.00  0.00     0.031 A 
ATOM      7  C   UNL     1     116.874 155.770 117.619  1.00  0.00     0.098 A 
ATOM      8  C   UNL     1     116.655 154.868 118.666  1.00  0.00     0.270 A 
ATOM      9  C   UNL     1     115.656 155.110 119.612  1.00  0.00     0.088 A 
ATOM     10  C   UNL     1     114.895 156.277 119.519  1.00  0.00     0.034 A 
ATOM     11  C   UNL     1     115.128 157.215 118.500  1.00  0.00     0.051 A 
ATOM     12  N   UNL     1     114.333 158.369 118.546  1.00  0.00    -0.324 N 
ATOM     13  H   UNL     1     113.481 158.362 119.095  1.00  0.00     0.170 HD
ENDROOT
BRANCH   5  14
ATOM     14  C   UNL     1     116.430 157.058 114.991  1.00  0.00     0.019 A 
ATOM     15  C   UNL     1     117.696 157.121 114.394  1.00  0.00     0.012 A 
ATOM     16  C   UNL     1     115.399 156.326 114.392  1.00  0.00     0.050 A 
ATOM     17  C   UNL     1     117.926 156.458 113.189  1.00  0.00     0.001 A 
ATOM     18  C   UNL     1     115.638 155.666 113.185  1.00  0.00     0.021 A 
ATOM     19  C   UNL     1     116.899 155.733 112.584  1.00  0.00     0.002 A 
ATOM     20  Cl  UNL     1     113.810 156.251 115.061  1.00  0.00    -0.084 Cl
ENDBRANCH   5  14
BRANCH   8  21
ATOM     21  N   UNL     1     117.464 153.644 118.759  1.00  0.00     0.062 N 
ATOM     22  O   UNL     1     117.565 153.106 119.869  1.00  0.00    -0.258 OA
ATOM     23  O   UNL     1     117.989 153.224 117.720  1.00  0.00    -0.258 OA
ENDBRANCH   8  21
TORSDOF 2
ENDMDL
