MODEL 1
REMARK VINA RESULT:    -7.733      0.000      0.000
REMARK INTER + INTRA:          -7.872
REMARK INTER:                  -8.185
REMARK INTRA:                   0.313
REMARK UNBOUND:                 0.313
REMARK SMILES CN1C(=O)CN=C(c2ccccc2)c2cc(Cl)ccc21
REMARK SMILES IDX 1 1 2 2 3 3 4 4 5 5 6 6 7 7 14 8 15 9 16 10 17 11 18 12
REMARK SMILES IDX 19 13 20 14 8 15 9 16 13 17 10 18 12 19 11 20
REMARK H PARENT
ROOT
ATOM      1  C   UNL     1     141.822  97.610 137.369  1.00  0.00     0.153 C 
ATOM      2  N   UNL     1     142.825  96.946 138.192  1.00  0.00    -0.313 N 
ATOM      3  C   UNL     1     144.001  96.540 137.549  1.00  0.00     0.248 C 
ATOM      4  O   UNL     1     144.223  96.787 136.360  1.00  0.00    -0.272 OA
ATOM      5  C   UNL     1     144.971  95.689 138.355  1.00  0.00     0.243 C 
ATOM      6  N   UNL     1     145.633  96.531 139.346  1.00  0.00    -0.274 NA
ATOM      7  C   UNL     1     144.930  96.961 140.340  1.00  0.00     0.075 C 
ATOM      8  C   UNL     1     143.502  96.594 140.575  1.00  0.00     0.026 A 
ATOM      9  C   UNL     1     143.148  96.227 141.888  1.00  0.00     0.033 A 
ATOM     10  C   UNL     1     141.819  95.987 142.213  1.00  0.00     0.041 A 
ATOM     11  Cl  UNL     1     141.393  95.556 143.822  1.00  0.00    -0.084 Cl
ATOM     12  C   UNL     1     140.832  96.104 141.244  1.00  0.00     0.023 A 
ATOM     13  C   UNL     1     141.183  96.442 139.933  1.00  0.00     0.028 A 
ATOM     14  C   UNL     1     142.524  96.666 139.562  1.00  0.00     0.053 A 
ENDROOT
BRANCH   7  15
ATOM     15  C   UNL     1     145.608  97.879 141.311  1.00  0.00     0.000 A 
ATOM     16  C   UNL     1     144.916  98.286 142.458  1.00  0.00     0.010 A 
ATOM     17  C   UNL     1     146.926  98.307 141.108  1.00  0.00     0.010 A 
ATOM     18  C   UNL     1     145.526  99.140 143.378  1.00  0.00     0.001 A 
ATOM     19  C   UNL     1     147.532  99.161 142.031  1.00  0.00     0.001 A 
ATOM     20  C   UNL     1     146.832  99.580 143.162  1.00  0.00     0.000 A 
ENDBRANCH   7  15
TORSDOF 1
ENDMDL
MODEL 2
REMARK VINA RESULT:    -7.311      4.074      5.474
REMARK INTER + INTRA:          -7.426
REMARK INTER:                  -7.425
REMARK INTRA:                  -0.001
REMARK UNBOUND:                 0.313
REMARK SMILES CN1C(=O)CN=C(c2ccccc2)c2cc(Cl)ccc21
REMARK SMILES IDX 1 1 2 2 3 3 4 4 5 5 6 6 7 7 14 8 15 9 16 10 17 11 18 12
REMARK SMILES IDX 19 13 20 14 8 15 9 16 13 17 10 18 12 19 11 20
REMARK H PARENT
ROOT
ATOM      1  C   UNL     1     140.828  94.971 134.059  1.00  0.00     0.153 C 
ATOM      2  N   UNL     1     141.402  95.833 135.083  1.00  0.00    -0.313 N 
ATOM      3  C   UNL     1     140.676  96.982 135.422  1.00  0.00     0.248 C 
ATOM      4  O   UNL     1     139.568  97.230 134.937  1.00  0.00    -0.272 OA
ATOM      5  C   UNL     1     141.351  97.977 136.354  1.00  0.00     0.243 C 
ATOM      6  N   UNL     1     141.380  97.422 137.703  1.00  0.00    -0.274 NA
ATOM      7  C   UNL     1     142.169  96.426 137.930  1.00  0.00     0.075 C 
ATOM      8  C   UNL     1     143.104  95.851 136.918  1.00  0.00     0.026 A 
ATOM      9  C   UNL     1     144.421  95.591 137.345  1.00  0.00     0.033 A 
ATOM     10  C   UNL     1     145.316  94.949 136.499  1.00  0.00     0.041 A 
ATOM     11  Cl  UNL     1     146.916  94.619 137.033  1.00  0.00    -0.084 Cl
ATOM     12  C   UNL     1     144.918  94.564 135.226  1.00  0.00     0.023 A 
ATOM     13  C   UNL     1     143.620  94.845 134.789  1.00  0.00     0.028 A 
ATOM     14  C   UNL     1     142.695  95.519 135.611  1.00  0.00     0.053 A 
ENDROOT
BRANCH   7  15
ATOM     15  C   UNL     1     142.135  95.826 139.303  1.00  0.00     0.000 A 
ATOM     16  C   UNL     1     141.506  96.530 140.337  1.00  0.00     0.010 A 
ATOM     17  C   UNL     1     142.693  94.568 139.560  1.00  0.00     0.010 A 
ATOM     18  C   UNL     1     141.461  95.993 141.624  1.00  0.00     0.001 A 
ATOM     19  C   UNL     1     142.646  94.034 140.850  1.00  0.00     0.001 A 
ATOM     20  C   UNL     1     142.035  94.747 141.881  1.00  0.00     0.000 A 
ENDBRANCH   7  15
TORSDOF 1
ENDMDL
MODEL 3
REMARK VINA RESULT:    -7.259      2.781      4.141
REMARK INTER + INTRA:          -7.370
REMARK INTER:                  -7.048
REMARK INTRA:                  -0.322
REMARK UNBOUND:                 0.313
REMARK SMILES CN1C(=O)CN=C(c2ccccc2)c2cc(Cl)ccc21
REMARK SMILES IDX 1 1 2 2 3 3 4 4 5 5 6 6 7 7 14 8 15 9 16 10 17 11 18 12
REMARK SMILES IDX 19 13 20 14 8 15 9 16 13 17 10 18 12 19 11 20
REMARK H PARENT
ROOT
ATOM      1  C   UNL     1     143.815  97.023 134.922  1.00  0.00     0.153 C 
ATOM      2  N   UNL     1     142.989  96.357 135.921  1.00  0.00    -0.313 N 
ATOM      3  C   UNL     1     143.199  94.985 136.101  1.00  0.00     0.248 C 
ATOM      4  O   UNL     1     144.084  94.367 135.502  1.00  0.00    -0.272 OA
ATOM      5  C   UNL     1     142.223  94.248 137.007  1.00  0.00     0.243 C 
ATOM      6  N   UNL     1     142.489  94.617 138.393  1.00  0.00    -0.274 NA
ATOM      7  C   UNL     1     142.188  95.815 138.768  1.00  0.00     0.075 C 
ATOM      8  C   UNL     1     141.520  96.823 137.893  1.00  0.00     0.026 A 
ATOM      9  C   UNL     1     140.447  97.542 138.455  1.00  0.00     0.033 A 
ATOM     10  C   UNL     1     139.851  98.577 137.745  1.00  0.00     0.041 A 
ATOM     11  Cl  UNL     1     138.553  99.461 138.444  1.00  0.00    -0.084 Cl
ATOM     12  C   UNL     1     140.309  98.907 136.477  1.00  0.00     0.023 A 
ATOM     13  C   UNL     1     141.357  98.178 135.905  1.00  0.00     0.028 A 
ATOM     14  C   UNL     1     141.965  97.104 136.585  1.00  0.00     0.053 A 
ENDROOT
BRANCH   7  15
ATOM     15  C   UNL     1     142.529  96.197 140.177  1.00  0.00     0.000 A 
ATOM     16  C   UNL     1     141.604  95.939 141.195  1.00  0.00     0.010 A 
ATOM     17  C   UNL     1     143.765  96.776 140.493  1.00  0.00     0.010 A 
ATOM     18  C   UNL     1     141.898  96.285 142.514  1.00  0.00     0.001 A 
ATOM     19  C   UNL     1     144.055  97.120 141.815  1.00  0.00     0.001 A 
ATOM     20  C   UNL     1     143.122  96.880 142.822  1.00  0.00     0.000 A 
ENDBRANCH   7  15
TORSDOF 1
ENDMDL
MODEL 4
REMARK VINA RESULT:    -7.020      4.653      7.867
REMARK INTER + INTRA:          -7.118
REMARK INTER:                  -6.731
REMARK INTRA:                  -0.387
REMARK UNBOUND:                 0.313
REMARK SMILES CN1C(=O)CN=C(c2ccccc2)c2cc(Cl)ccc21
REMARK SMILES IDX 1 1 2 2 3 3 4 4 5 5 6 6 7 7 14 8 15 9 16 10 17 11 18 12
REMARK SMILES IDX 19 13 20 14 8 15 9 16 13 17 10 18 12 19 11 20
REMARK H PARENT
ROOT
ATOM      1  C   UNL     1     144.548  95.158 135.464  1.00  0.00     0.153 C 
ATOM      2  N   UNL     1     143.988  96.473 135.180  1.00  0.00    -0.313 N 
ATOM      3  C   UNL     1     144.676  97.265 134.253  1.00  0.00     0.248 C 
ATOM      4  O   UNL     1     145.669  96.857 133.644  1.00  0.00    -0.272 OA
ATOM      5  C   UNL     1     144.203  98.702 134.085  1.00  0.00     0.243 C 
ATOM      6  N   UNL     1     142.935  98.705 133.364  1.00  0.00    -0.274 NA
ATOM      7  C   UNL     1     141.890  98.261 133.978  1.00  0.00     0.075 C 
ATOM      8  C   UNL     1     141.884  97.810 135.401  1.00  0.00     0.026 A 
ATOM      9  C   UNL     1     140.828  98.272 136.210  1.00  0.00     0.033 A 
ATOM     10  C   UNL     1     140.687  97.804 137.511  1.00  0.00     0.041 A 
ATOM     11  Cl  UNL     1     139.385  98.360 138.487  1.00  0.00    -0.084 Cl
ATOM     12  C   UNL     1     141.589  96.880 138.021  1.00  0.00     0.023 A 
ATOM     13  C   UNL     1     142.654  96.439 137.229  1.00  0.00     0.028 A 
ATOM     14  C   UNL     1     142.843  96.914 135.916  1.00  0.00     0.053 A 
ENDROOT
BRANCH   7  15
ATOM     15  C   UNL     1     140.610  98.210 133.200  1.00  0.00     0.000 A 
ATOM     16  C   UNL     1     140.223  97.002 132.607  1.00  0.00     0.010 A 
ATOM     17  C   UNL     1     139.783  99.335 133.085  1.00  0.00     0.010 A 
ATOM     18  C   UNL     1     139.036  96.928 131.878  1.00  0.00     0.001 A 
ATOM     19  C   UNL     1     138.596  99.256 132.355  1.00  0.00     0.001 A 
ATOM     20  C   UNL     1     138.225  98.056 131.749  1.00  0.00     0.000 A 
ENDBRANCH   7  15
TORSDOF 1
ENDMDL
MODEL 5
REMARK VINA RESULT:    -6.957      3.257      5.898
REMARK INTER + INTRA:          -7.051
REMARK INTER:                  -7.018
REMARK INTRA:                  -0.033
REMARK UNBOUND:                 0.313
REMARK SMILES CN1C(=O)CN=C(c2ccccc2)c2cc(Cl)ccc21
REMARK SMILES IDX 1 1 2 2 3 3 4 4 5 5 6 6 7 7 14 8 15 9 16 10 17 11 18 12
REMARK SMILES IDX 19 13 20 14 8 15 9 16 13 17 10 18 12 19 11 20
REMARK H PARENT
ROOT
ATOM      1  C   UNL     1     141.154  95.554 141.122  1.00  0.00     0.153 C 
ATOM      2  N   UNL     1     142.169  96.141 140.257  1.00  0.00    -0.313 N 
ATOM      3  C   UNL     1     143.479  96.170 140.751  1.00  0.00     0.248 C 
ATOM      4  O   UNL     1     143.788  95.665 141.834  1.00  0.00    -0.272 OA
ATOM      5  C   UNL     1     144.509  96.939 139.936  1.00  0.00     0.243 C 
ATOM      6  N   UNL     1     144.827  96.180 138.731  1.00  0.00    -0.274 NA
ATOM      7  C   UNL     1     143.923  96.096 137.814  1.00  0.00     0.075 C 
ATOM      8  C   UNL     1     142.599  96.785 137.877  1.00  0.00     0.026 A 
ATOM      9  C   UNL     1     142.175  97.455 136.713  1.00  0.00     0.033 A 
ATOM     10  C   UNL     1     140.907  98.019 136.654  1.00  0.00     0.041 A 
ATOM     11  Cl  UNL     1     140.390  98.820 135.224  1.00  0.00    -0.084 Cl
ATOM     12  C   UNL     1     140.052  97.927 137.744  1.00  0.00     0.023 A 
ATOM     13  C   UNL     1     140.480  97.286 138.911  1.00  0.00     0.028 A 
ATOM     14  C   UNL     1     141.769  96.727 139.015  1.00  0.00     0.053 A 
ENDROOT
BRANCH   7  15
ATOM     15  C   UNL     1     144.242  95.257 136.614  1.00  0.00     0.000 A 
ATOM     16  C   UNL     1     145.574  94.907 136.364  1.00  0.00     0.010 A 
ATOM     17  C   UNL     1     143.232  94.793 135.762  1.00  0.00     0.010 A 
ATOM     18  C   UNL     1     145.897  94.126 135.254  1.00  0.00     0.001 A 
ATOM     19  C   UNL     1     143.559  94.012 134.652  1.00  0.00     0.001 A 
ATOM     20  C   UNL     1     144.890  93.683 134.395  1.00  0.00     0.000 A 
ENDBRANCH   7  15
TORSDOF 1
ENDMDL
MODEL 6
REMARK VINA RESULT:    -6.950      4.072      6.292
REMARK INTER + INTRA:          -7.044
REMARK INTER:                  -6.729
REMARK INTRA:                  -0.314
REMARK UNBOUND:                 0.313
REMARK SMILES CN1C(=O)CN=C(c2ccccc2)c2cc(Cl)ccc21
REMARK SMILES IDX 1 1 2 2 3 3 4 4 5 5 6 6 7 7 14 8 15 9 16 10 17 11 18 12
REMARK SMILES IDX 19 13 20 14 8 15 9 16 13 17 10 18 12 19 11 20
REMARK H PARENT
ROOT
ATOM      1  C   UNL     1     138.770  96.351 133.645  1.00  0.00     0.153 C 
ATOM      2  N   UNL     1     140.095  96.804 134.046  1.00  0.00    -0.313 N 
ATOM      3  C   UNL     1     140.276  98.186 134.180  1.00  0.00     0.248 C 
ATOM      4  O   UNL     1     139.351  98.991 134.038  1.00  0.00    -0.272 OA
ATOM      5  C   UNL     1     141.696  98.678 134.422  1.00  0.00     0.243 C 
ATOM      6  N   UNL     1     142.089  98.349 135.788  1.00  0.00    -0.274 NA
ATOM      7  C   UNL     1     142.296  97.108 136.074  1.00  0.00     0.075 C 
ATOM      8  C   UNL     1     142.227  95.996 135.080  1.00  0.00     0.026 A 
ATOM      9  C   UNL     1     143.272  95.053 135.107  1.00  0.00     0.033 A 
ATOM     10  C   UNL     1     143.220  93.927 134.294  1.00  0.00     0.041 A 
ATOM     11  Cl  UNL     1     144.492  92.772 134.346  1.00  0.00    -0.084 Cl
ATOM     12  C   UNL     1     142.138  93.728 133.449  1.00  0.00     0.023 A 
ATOM     13  C   UNL     1     141.111  94.676 133.399  1.00  0.00     0.028 A 
ATOM     14  C   UNL     1     141.145  95.842 134.189  1.00  0.00     0.053 A 
ENDROOT
BRANCH   7  15
ATOM     15  C   UNL     1     142.633  96.781 137.498  1.00  0.00     0.000 A 
ATOM     16  C   UNL     1     143.973  96.801 137.900  1.00  0.00     0.010 A 
ATOM     17  C   UNL     1     141.632  96.489 138.433  1.00  0.00     0.010 A 
ATOM     18  C   UNL     1     144.313  96.502 139.220  1.00  0.00     0.001 A 
ATOM     19  C   UNL     1     141.977  96.189 139.752  1.00  0.00     0.001 A 
ATOM     20  C   UNL     1     143.315  96.191 140.144  1.00  0.00     0.000 A 
ENDBRANCH   7  15
TORSDOF 1
ENDMDL
MODEL 7
REMARK VINA RESULT:    -6.829      5.232      7.882
REMARK INTER + INTRA:          -6.915
REMARK INTER:                  -6.456
REMARK INTRA:                  -0.459
REMARK UNBOUND:                 0.313
REMARK SMILES CN1C(=O)CN=C(c2ccccc2)c2cc(Cl)ccc21
REMARK SMILES IDX 1 1 2 2 3 3 4 4 5 5 6 6 7 7 14 8 15 9 16 10 17 11 18 12
REMARK SMILES IDX 19 13 20 14 8 15 9 16 13 17 10 18 12 19 11 20
REMARK H PARENT
ROOT
ATOM      1  C   UNL     1     138.918  96.859 131.638  1.00  0.00     0.153 C 
ATOM      2  N   UNL     1     139.908  97.553 132.451  1.00  0.00    -0.313 N 
ATOM      3  C   UNL     1     139.462  98.663 133.180  1.00  0.00     0.248 C 
ATOM      4  O   UNL     1     138.277  99.007 133.199  1.00  0.00    -0.272 OA
ATOM      5  C   UNL     1     140.520  99.498 133.886  1.00  0.00     0.243 C 
ATOM      6  N   UNL     1     141.019  98.758 135.040  1.00  0.00    -0.274 NA
ATOM      7  C   UNL     1     141.752  97.719 134.822  1.00  0.00     0.075 C 
ATOM      8  C   UNL     1     142.179  97.266 133.464  1.00  0.00     0.026 A 
ATOM      9  C   UNL     1     143.533  96.911 133.309  1.00  0.00     0.033 A 
ATOM     10  C   UNL     1     143.981  96.370 132.111  1.00  0.00     0.041 A 
ATOM     11  Cl  UNL     1     145.632  95.924 131.935  1.00  0.00    -0.084 Cl
ATOM     12  C   UNL     1     143.097  96.179 131.058  1.00  0.00     0.023 A 
ATOM     13  C   UNL     1     141.757  96.555 131.200  1.00  0.00     0.028 A 
ATOM     14  C   UNL     1     141.275  97.132 132.391  1.00  0.00     0.053 A 
ENDROOT
BRANCH   7  15
ATOM     15  C   UNL     1     142.199  96.933 136.017  1.00  0.00     0.000 A 
ATOM     16  C   UNL     1     142.933  97.579 137.019  1.00  0.00     0.010 A 
ATOM     17  C   UNL     1     141.870  95.580 136.162  1.00  0.00     0.010 A 
ATOM     18  C   UNL     1     143.361  96.871 138.142  1.00  0.00     0.001 A 
ATOM     19  C   UNL     1     142.300  94.874 137.288  1.00  0.00     0.001 A 
ATOM     20  C   UNL     1     143.048  95.517 138.273  1.00  0.00     0.000 A 
ENDBRANCH   7  15
TORSDOF 1
ENDMDL
MODEL 8
REMARK VINA RESULT:    -6.744      4.807      7.255
REMARK INTER + INTRA:          -6.825
REMARK INTER:                  -6.389
REMARK INTRA:                  -0.436
REMARK UNBOUND:                 0.313
REMARK SMILES CN1C(=O)CN=C(c2ccccc2)c2cc(Cl)ccc21
REMARK SMILES IDX 1 1 2 2 3 3 4 4 5 5 6 6 7 7 14 8 15 9 16 10 17 11 18 12
REMARK SMILES IDX 19 13 20 14 8 15 9 16 13 17 10 18 12 19 11 20
REMARK H PARENT
ROOT
ATOM      1  C   UNL     1     138.529  98.577 132.658  1.00  0.00     0.153 C 
ATOM      2  N   UNL     1     139.934  98.320 132.945  1.00  0.00    -0.313 N 
ATOM      3  C   UNL     1     140.781  99.434 133.002  1.00  0.00     0.248 C 
ATOM      4  O   UNL     1     140.361 100.590 132.887  1.00  0.00    -0.272 OA
ATOM      5  C   UNL     1     142.274  99.164 133.121  1.00  0.00     0.243 C 
ATOM      6  N   UNL     1     142.566  98.692 134.470  1.00  0.00    -0.274 NA
ATOM      7  C   UNL     1     142.160  97.512 134.799  1.00  0.00     0.075 C 
ATOM      8  C   UNL     1     141.472  96.573 133.865  1.00  0.00     0.026 A 
ATOM      9  C   UNL     1     141.918  95.237 133.863  1.00  0.00     0.033 A 
ATOM     10  C   UNL     1     141.252  94.279 133.109  1.00  0.00     0.041 A 
ATOM     11  Cl  UNL     1     141.792  92.646 133.126  1.00  0.00    -0.084 Cl
ATOM     12  C   UNL     1     140.145  94.633 132.351  1.00  0.00     0.023 A 
ATOM     13  C   UNL     1     139.716  95.964 132.329  1.00  0.00     0.028 A 
ATOM     14  C   UNL     1     140.384  96.967 133.059  1.00  0.00     0.053 A 
ENDROOT
BRANCH   7  15
ATOM     15  C   UNL     1     142.410  97.071 136.210  1.00  0.00     0.000 A 
ATOM     16  C   UNL     1     143.701  96.673 136.578  1.00  0.00     0.010 A 
ATOM     17  C   UNL     1     141.388  97.080 137.167  1.00  0.00     0.010 A 
ATOM     18  C   UNL     1     143.960  96.258 137.885  1.00  0.00     0.001 A 
ATOM     19  C   UNL     1     141.651  96.665 138.473  1.00  0.00     0.001 A 
ATOM     20  C   UNL     1     142.934  96.250 138.830  1.00  0.00     0.000 A 
ENDBRANCH   7  15
TORSDOF 1
ENDMDL
MODEL 9
REMARK VINA RESULT:    -6.398      5.429      8.018
REMARK INTER + INTRA:          -6.459
REMARK INTER:                  -5.982
REMARK INTRA:                  -0.477
REMARK UNBOUND:                 0.313
REMARK SMILES CN1C(=O)CN=C(c2ccccc2)c2cc(Cl)ccc21
REMARK SMILES IDX 1 1 2 2 3 3 4 4 5 5 6 6 7 7 14 8 15 9 16 10 17 11 18 12
REMARK SMILES IDX 19 13 20 14 8 15 9 16 13 17 10 18 12 19 11 20
REMARK H PARENT
ROOT
ATOM      1  C   UNL     1     143.963  93.473 132.888  1.00  0.00     0.153 C 
ATOM      2  N   UNL     1     143.923  94.910 133.127  1.00  0.00    -0.313 N 
ATOM      3  C   UNL     1     144.530  95.727 132.165  1.00  0.00     0.248 C 
ATOM      4  O   UNL     1     145.018  95.274 131.126  1.00  0.00    -0.272 OA
ATOM      5  C   UNL     1     144.651  97.209 132.493  1.00  0.00     0.243 C 
ATOM      6  N   UNL     1     143.333  97.827 132.396  1.00  0.00    -0.274 NA
ATOM      7  C   UNL     1     142.459  97.532 133.298  1.00  0.00     0.075 C 
ATOM      8  C   UNL     1     142.733  96.652 134.473  1.00  0.00     0.026 A 
ATOM      9  C   UNL     1     142.278  97.106 135.727  1.00  0.00     0.033 A 
ATOM     10  C   UNL     1     142.390  96.292 136.847  1.00  0.00     0.041 A 
ATOM     11  Cl  UNL     1     141.816  96.846 138.370  1.00  0.00    -0.084 Cl
ATOM     12  C   UNL     1     142.954  95.029 136.738  1.00  0.00     0.023 A 
ATOM     13  C   UNL     1     143.432  94.586 135.500  1.00  0.00     0.028 A 
ATOM     14  C   UNL     1     143.359  95.395 134.349  1.00  0.00     0.053 A 
ENDROOT
BRANCH   7  15
ATOM     15  C   UNL     1     141.090  98.124 133.145  1.00  0.00     0.000 A 
ATOM     16  C   UNL     1     140.010  97.277 132.873  1.00  0.00     0.010 A 
ATOM     17  C   UNL     1     140.872  99.498 133.299  1.00  0.00     0.010 A 
ATOM     18  C   UNL     1     138.726  97.803 132.726  1.00  0.00     0.001 A 
ATOM     19  C   UNL     1     139.586 100.021 133.152  1.00  0.00     0.001 A 
ATOM     20  C   UNL     1     138.516  99.175 132.861  1.00  0.00     0.000 A 
ENDBRANCH   7  15
TORSDOF 1
ENDMDL
