MODEL 1
REMARK VINA RESULT:    -8.601      0.000      0.000
REMARK INTER + INTRA:         -11.109
REMARK INTER:                 -10.612
REMARK INTRA:                  -0.497
REMARK UNBOUND:                -0.497
REMARK SMILES CCN(C(C)=O)c1cccc(-c2ccnc3c(C#N)cnn23)c1
REMARK SMILES IDX 3 1 2 2 1 3 4 4 6 5 5 6 7 7 8 8 23 9 9 10 11 11 10 12 12 13
REMARK SMILES IDX 13 14 22 15 14 16 21 17 16 18 15 19 20 20 17 21 18 22 19 23
REMARK H PARENT
ROOT
ATOM      1  N   UNL     1     143.614  95.792 137.932  1.00  0.00    -0.313 N 
ENDROOT
BRANCH   1   2
ATOM      2  C   UNL     1     142.531  96.169 137.005  1.00  0.00     0.122 C 
ATOM      3  C   UNL     1     142.328  97.678 136.926  1.00  0.00     0.028 C 
ENDBRANCH   1   2
BRANCH   1   4
ATOM      4  C   UNL     1     144.910  95.525 137.445  1.00  0.00     0.223 C 
ATOM      5  O   UNL     1     145.961  95.724 138.059  1.00  0.00    -0.275 OA
ATOM      6  C   UNL     1     145.014  94.936 136.054  1.00  0.00     0.115 C 
ENDBRANCH   1   4
BRANCH   1   7
ATOM      7  C   UNL     1     143.283  95.632 139.338  1.00  0.00     0.044 A 
ATOM      8  C   UNL     1     142.679  94.465 139.828  1.00  0.00     0.026 A 
ATOM      9  C   UNL     1     143.582  96.630 140.287  1.00  0.00     0.036 A 
ATOM     10  C   UNL     1     142.357  94.311 141.181  1.00  0.00     0.003 A 
ATOM     11  C   UNL     1     143.272  96.493 141.654  1.00  0.00     0.002 A 
ATOM     12  C   UNL     1     142.645  95.322 142.090  1.00  0.00     0.010 A 
BRANCH  11  13
ATOM     13  C   UNL     1     143.603  97.571 142.613  1.00  0.00     0.076 C 
ATOM     14  C   UNL     1     142.667  97.967 143.498  1.00  0.00     0.049 C 
ATOM     15  N   UNL     1     144.874  98.182 142.647  1.00  0.00    -0.213 N 
ATOM     16  C   UNL     1     143.067  99.043 144.438  1.00  0.00     0.116 C 
ATOM     17  N   UNL     1     145.963  97.924 141.865  1.00  0.00    -0.173 NA
ATOM     18  C   UNL     1     145.153  99.198 143.579  1.00  0.00     0.173 A 
ATOM     19  N   UNL     1     144.224  99.627 144.488  1.00  0.00    -0.236 NA
ATOM     20  C   UNL     1     146.896  98.778 142.287  1.00  0.00     0.157 A 
ATOM     21  C   UNL     1     146.453  99.583 143.340  1.00  0.00     0.117 A 
ATOM     22  C   UNL     1     147.187 100.587 144.029  1.00  0.00     0.105 C 
ATOM     23  N   UNL     1     147.822 101.397 144.566  1.00  0.00    -0.192 NA
ENDBRANCH  11  13
ENDBRANCH   1   7
TORSDOF 4
ENDMDL
MODEL 2
REMARK VINA RESULT:    -8.376      2.005      6.920
REMARK INTER + INTRA:         -10.831
REMARK INTER:                 -10.453
REMARK INTRA:                  -0.379
REMARK UNBOUND:                -0.497
REMARK SMILES CCN(C(C)=O)c1cccc(-c2ccnc3c(C#N)cnn23)c1
REMARK SMILES IDX 3 1 2 2 1 3 4 4 6 5 5 6 7 7 8 8 23 9 9 10 11 11 10 12 12 13
REMARK SMILES IDX 13 14 22 15 14 16 21 17 16 18 15 19 20 20 17 21 18 22 19 23
REMARK H PARENT
ROOT
ATOM      1  N   UNL     1     144.977  98.070 143.377  1.00  0.00    -0.313 N 
ENDROOT
BRANCH   1   2
ATOM      2  C   UNL     1     144.377  98.661 144.588  1.00  0.00     0.122 C 
ATOM      3  C   UNL     1     143.112  99.455 144.285  1.00  0.00     0.028 C 
ENDBRANCH   1   2
BRANCH   1   4
ATOM      4  C   UNL     1     146.311  98.361 143.026  1.00  0.00     0.223 C 
ATOM      5  O   UNL     1     147.278  97.617 143.207  1.00  0.00    -0.275 OA
ATOM      6  C   UNL     1     146.573  99.697 142.364  1.00  0.00     0.115 C 
ENDBRANCH   1   4
BRANCH   1   7
ATOM      7  C   UNL     1     144.129  97.251 142.527  1.00  0.00     0.044 A 
ATOM      8  C   UNL     1     142.995  96.593 143.025  1.00  0.00     0.026 A 
ATOM      9  C   UNL     1     144.385  97.105 141.149  1.00  0.00     0.036 A 
ATOM     10  C   UNL     1     142.181  95.802 142.208  1.00  0.00     0.003 A 
ATOM     11  C   UNL     1     143.574  96.319 140.307  1.00  0.00     0.002 A 
ATOM     12  C   UNL     1     142.471  95.659 140.856  1.00  0.00     0.010 A 
BRANCH  11  13
ATOM     13  C   UNL     1     143.885  96.193 138.865  1.00  0.00     0.076 C 
ATOM     14  C   UNL     1     144.961  95.471 138.492  1.00  0.00     0.049 C 
ATOM     15  N   UNL     1     143.081  96.783 137.868  1.00  0.00    -0.213 N 
ATOM     16  C   UNL     1     145.210  95.375 137.032  1.00  0.00     0.116 C 
ATOM     17  N   UNL     1     141.948  97.528 138.021  1.00  0.00    -0.173 NA
ATOM     18  C   UNL     1     143.406  96.633 136.507  1.00  0.00     0.173 A 
ATOM     19  N   UNL     1     144.493  95.912 136.094  1.00  0.00    -0.236 NA
ATOM     20  C   UNL     1     141.586  97.856 136.781  1.00  0.00     0.157 A 
ATOM     21  C   UNL     1     142.444  97.330 135.811  1.00  0.00     0.117 A 
ATOM     22  C   UNL     1     142.350  97.476 134.400  1.00  0.00     0.105 C 
ATOM     23  N   UNL     1     142.234  97.618 133.254  1.00  0.00    -0.192 NA
ENDBRANCH  11  13
ENDBRANCH   1   7
TORSDOF 4
ENDMDL
MODEL 3
REMARK VINA RESULT:    -8.142      2.537      7.310
REMARK INTER + INTRA:         -10.543
REMARK INTER:                  -9.934
REMARK INTRA:                  -0.609
REMARK UNBOUND:                -0.497
REMARK SMILES CCN(C(C)=O)c1cccc(-c2ccnc3c(C#N)cnn23)c1
REMARK SMILES IDX 3 1 2 2 1 3 4 4 6 5 5 6 7 7 8 8 23 9 9 10 11 11 10 12 12 13
REMARK SMILES IDX 13 14 22 15 14 16 21 17 16 18 15 19 20 20 17 21 18 22 19 23
REMARK H PARENT
ROOT
ATOM      1  N   UNL     1     144.420  97.666 142.547  1.00  0.00    -0.313 N 
ENDROOT
BRANCH   1   2
ATOM      2  C   UNL     1     145.662  98.319 142.093  1.00  0.00     0.122 C 
ATOM      3  C   UNL     1     146.727  98.370 143.183  1.00  0.00     0.028 C 
ENDBRANCH   1   2
BRANCH   1   4
ATOM      4  C   UNL     1     143.954  97.857 143.864  1.00  0.00     0.223 C 
ATOM      5  O   UNL     1     144.197  97.122 144.824  1.00  0.00    -0.275 OA
ATOM      6  C   UNL     1     143.088  99.073 144.117  1.00  0.00     0.115 C 
ENDBRANCH   1   4
BRANCH   1   7
ATOM      7  C   UNL     1     143.747  96.766 141.626  1.00  0.00     0.044 A 
ATOM      8  C   UNL     1     143.013  95.659 142.074  1.00  0.00     0.026 A 
ATOM      9  C   UNL     1     143.771  96.982 140.233  1.00  0.00     0.036 A 
ATOM     10  C   UNL     1     142.367  94.791 141.187  1.00  0.00     0.003 A 
ATOM     11  C   UNL     1     143.123  96.123 139.323  1.00  0.00     0.002 A 
ATOM     12  C   UNL     1     142.427  95.017 139.817  1.00  0.00     0.010 A 
BRANCH  11  13
ATOM     13  C   UNL     1     143.179  96.389 137.867  1.00  0.00     0.076 C 
ATOM     14  C   UNL     1     144.182  95.852 137.146  1.00  0.00     0.049 C 
ATOM     15  N   UNL     1     142.205  97.166 137.207  1.00  0.00    -0.213 N 
ATOM     16  C   UNL     1     144.174  96.147 135.691  1.00  0.00     0.116 C 
ATOM     17  N   UNL     1     141.106  97.781 137.735  1.00  0.00    -0.173 NA
ATOM     18  C   UNL     1     142.289  97.390 135.820  1.00  0.00     0.173 A 
ATOM     19  N   UNL     1     143.297  96.863 135.058  1.00  0.00    -0.236 NA
ATOM     20  C   UNL     1     140.528  98.393 136.702  1.00  0.00     0.157 A 
ATOM     21  C   UNL     1     141.211  98.184 135.500  1.00  0.00     0.117 A 
ATOM     22  C   UNL     1     140.869  98.680 134.212  1.00  0.00     0.105 C 
ATOM     23  N   UNL     1     140.553  99.104 133.179  1.00  0.00    -0.192 NA
ENDBRANCH  11  13
ENDBRANCH   1   7
TORSDOF 4
ENDMDL
MODEL 4
REMARK VINA RESULT:    -7.905      1.925      6.522
REMARK INTER + INTRA:         -10.250
REMARK INTER:                  -9.929
REMARK INTRA:                  -0.320
REMARK UNBOUND:                -0.497
REMARK SMILES CCN(C(C)=O)c1cccc(-c2ccnc3c(C#N)cnn23)c1
REMARK SMILES IDX 3 1 2 2 1 3 4 4 6 5 5 6 7 7 8 8 23 9 9 10 11 11 10 12 12 13
REMARK SMILES IDX 13 14 22 15 14 16 21 17 16 18 15 19 20 20 17 21 18 22 19 23
REMARK H PARENT
ROOT
ATOM      1  N   UNL     1     144.928  98.134 143.443  1.00  0.00    -0.313 N 
ENDROOT
BRANCH   1   2
ATOM      2  C   UNL     1     144.507  98.949 144.598  1.00  0.00     0.122 C 
ATOM      3  C   UNL     1     143.154  99.616 144.380  1.00  0.00     0.028 C 
ENDBRANCH   1   2
BRANCH   1   4
ATOM      4  C   UNL     1     146.238  98.241 142.934  1.00  0.00     0.223 C 
ATOM      5  O   UNL     1     147.180  97.499 143.220  1.00  0.00    -0.275 OA
ATOM      6  C   UNL     1     146.503  99.357 141.947  1.00  0.00     0.115 C 
ENDBRANCH   1   4
BRANCH   1   7
ATOM      7  C   UNL     1     143.932  97.287 142.808  1.00  0.00     0.044 A 
ATOM      8  C   UNL     1     142.980  96.576 143.553  1.00  0.00     0.026 A 
ATOM      9  C   UNL     1     143.853  97.165 141.406  1.00  0.00     0.036 A 
ATOM     10  C   UNL     1     142.024  95.758 142.941  1.00  0.00     0.003 A 
ATOM     11  C   UNL     1     142.894  96.351 140.770  1.00  0.00     0.002 A 
ATOM     12  C   UNL     1     141.984  95.640 141.557  1.00  0.00     0.010 A 
BRANCH  11  13
ATOM     13  C   UNL     1     142.851  96.252 139.294  1.00  0.00     0.076 C 
ATOM     14  C   UNL     1     141.755  96.687 138.643  1.00  0.00     0.049 C 
ATOM     15  N   UNL     1     143.930  95.738 138.544  1.00  0.00    -0.213 N 
ATOM     16  C   UNL     1     141.781  96.570 137.163  1.00  0.00     0.116 C 
ATOM     17  N   UNL     1     145.130  95.267 138.993  1.00  0.00    -0.173 NA
ATOM     18  C   UNL     1     143.855  95.667 137.141  1.00  0.00     0.173 A 
ATOM     19  N   UNL     1     142.754  96.096 136.448  1.00  0.00    -0.236 NA
ATOM     20  C   UNL     1     145.781  94.889 137.893  1.00  0.00     0.157 A 
ATOM     21  C   UNL     1     145.046  95.115 136.726  1.00  0.00     0.117 A 
ATOM     22  C   UNL     1     145.439  94.840 135.388  1.00  0.00     0.105 C 
ATOM     23  N   UNL     1     145.801  94.602 134.311  1.00  0.00    -0.192 NA
ENDBRANCH  11  13
ENDBRANCH   1   7
TORSDOF 4
ENDMDL
MODEL 5
REMARK VINA RESULT:    -7.599      2.422      7.247
REMARK INTER + INTRA:          -9.873
REMARK INTER:                  -9.272
REMARK INTRA:                  -0.600
REMARK UNBOUND:                -0.497
REMARK SMILES CCN(C(C)=O)c1cccc(-c2ccnc3c(C#N)cnn23)c1
REMARK SMILES IDX 3 1 2 2 1 3 4 4 6 5 5 6 7 7 8 8 23 9 9 10 11 11 10 12 12 13
REMARK SMILES IDX 13 14 22 15 14 16 21 17 16 18 15 19 20 20 17 21 18 22 19 23
REMARK H PARENT
ROOT
ATOM      1  N   UNL     1     144.433  97.445 142.183  1.00  0.00    -0.313 N 
ENDROOT
BRANCH   1   2
ATOM      2  C   UNL     1     145.681  98.140 141.815  1.00  0.00     0.122 C 
ATOM      3  C   UNL     1     146.056  99.233 142.810  1.00  0.00     0.028 C 
ENDBRANCH   1   2
BRANCH   1   4
ATOM      4  C   UNL     1     143.935  97.523 143.500  1.00  0.00     0.223 C 
ATOM      5  O   UNL     1     144.407  96.942 144.479  1.00  0.00    -0.275 OA
ATOM      6  C   UNL     1     142.722  98.401 143.725  1.00  0.00     0.115 C 
ENDBRANCH   1   4
BRANCH   1   7
ATOM      7  C   UNL     1     143.788  96.623 141.173  1.00  0.00     0.044 A 
ATOM      8  C   UNL     1     143.148  95.418 141.497  1.00  0.00     0.026 A 
ATOM      9  C   UNL     1     143.743  97.015 139.820  1.00  0.00     0.036 A 
ATOM     10  C   UNL     1     142.530  94.625 140.524  1.00  0.00     0.003 A 
ATOM     11  C   UNL     1     143.120  96.234 138.826  1.00  0.00     0.002 A 
ATOM     12  C   UNL     1     142.520  95.027 139.193  1.00  0.00     0.010 A 
BRANCH  11  13
ATOM     13  C   UNL     1     143.102  96.685 137.416  1.00  0.00     0.076 C 
ATOM     14  C   UNL     1     142.249  97.665 137.057  1.00  0.00     0.049 C 
ATOM     15  N   UNL     1     143.963  96.140 136.441  1.00  0.00    -0.213 N 
ATOM     16  C   UNL     1     142.289  98.079 135.632  1.00  0.00     0.116 C 
ATOM     17  N   UNL     1     144.908  95.167 136.590  1.00  0.00    -0.173 NA
ATOM     18  C   UNL     1     143.921  96.602 135.113  1.00  0.00     0.173 A 
ATOM     19  N   UNL     1     143.064  97.592 134.713  1.00  0.00    -0.236 NA
ATOM     20  C   UNL     1     145.429  95.008 135.374  1.00  0.00     0.157 A 
ATOM     21  C   UNL     1     144.862  95.867 134.427  1.00  0.00     0.117 A 
ATOM     22  C   UNL     1     145.186  95.970 133.047  1.00  0.00     0.105 C 
ATOM     23  N   UNL     1     145.483  96.023 131.926  1.00  0.00    -0.192 NA
ENDBRANCH  11  13
ENDBRANCH   1   7
TORSDOF 4
ENDMDL
MODEL 6
REMARK VINA RESULT:    -6.824      4.562      7.506
REMARK INTER + INTRA:          -8.917
REMARK INTER:                  -8.374
REMARK INTRA:                  -0.543
REMARK UNBOUND:                -0.497
REMARK SMILES CCN(C(C)=O)c1cccc(-c2ccnc3c(C#N)cnn23)c1
REMARK SMILES IDX 3 1 2 2 1 3 4 4 6 5 5 6 7 7 8 8 23 9 9 10 11 11 10 12 12 13
REMARK SMILES IDX 13 14 22 15 14 16 21 17 16 18 15 19 20 20 17 21 18 22 19 23
REMARK H PARENT
ROOT
ATOM      1  N   UNL     1     140.896  97.546 131.320  1.00  0.00    -0.313 N 
ENDROOT
BRANCH   1   2
ATOM      2  C   UNL     1     141.215  96.308 130.585  1.00  0.00     0.122 C 
ATOM      3  C   UNL     1     140.543  95.080 131.189  1.00  0.00     0.028 C 
ENDBRANCH   1   2
BRANCH   1   4
ATOM      4  C   UNL     1     139.866  98.397 130.872  1.00  0.00     0.223 C 
ATOM      5  O   UNL     1     140.019  99.391 130.158  1.00  0.00    -0.275 OA
ATOM      6  C   UNL     1     138.455  98.054 131.299  1.00  0.00     0.115 C 
ENDBRANCH   1   4
BRANCH   1   7
ATOM      7  C   UNL     1     141.725  97.892 132.464  1.00  0.00     0.044 A 
ATOM      8  C   UNL     1     142.979  98.500 132.313  1.00  0.00     0.026 A 
ATOM      9  C   UNL     1     141.292  97.663 133.785  1.00  0.00     0.036 A 
ATOM     10  C   UNL     1     143.778  98.831 133.413  1.00  0.00     0.003 A 
ATOM     11  C   UNL     1     142.079  97.993 134.907  1.00  0.00     0.002 A 
ATOM     12  C   UNL     1     143.334  98.572 134.704  1.00  0.00     0.010 A 
BRANCH  11  13
ATOM     13  C   UNL     1     141.583  97.730 136.277  1.00  0.00     0.076 C 
ATOM     14  C   UNL     1     140.364  98.185 136.627  1.00  0.00     0.049 C 
ATOM     15  N   UNL     1     142.334  96.999 137.220  1.00  0.00    -0.213 N 
ATOM     16  C   UNL     1     139.922  97.877 138.011  1.00  0.00     0.116 C 
ATOM     17  N   UNL     1     143.569  96.435 137.072  1.00  0.00    -0.173 NA
ATOM     18  C   UNL     1     141.825  96.762 138.511  1.00  0.00     0.173 A 
ATOM     19  N   UNL     1     140.593  97.214 138.901  1.00  0.00    -0.236 NA
ATOM     20  C   UNL     1     143.833  95.877 138.253  1.00  0.00     0.157 A 
ATOM     21  C   UNL     1     142.795  96.045 139.174  1.00  0.00     0.117 A 
ATOM     22  C   UNL     1     142.741  95.574 140.514  1.00  0.00     0.105 C 
ATOM     23  N   UNL     1     142.738  95.169 141.602  1.00  0.00    -0.192 NA
ENDBRANCH  11  13
ENDBRANCH   1   7
TORSDOF 4
ENDMDL
MODEL 7
REMARK VINA RESULT:    -6.784      2.061      3.332
REMARK INTER + INTRA:          -8.867
REMARK INTER:                  -8.166
REMARK INTRA:                  -0.701
REMARK UNBOUND:                -0.497
REMARK SMILES CCN(C(C)=O)c1cccc(-c2ccnc3c(C#N)cnn23)c1
REMARK SMILES IDX 3 1 2 2 1 3 4 4 6 5 5 6 7 7 8 8 23 9 9 10 11 11 10 12 12 13
REMARK SMILES IDX 13 14 22 15 14 16 21 17 16 18 15 19 20 20 17 21 18 22 19 23
REMARK H PARENT
ROOT
ATOM      1  N   UNL     1     142.755  97.313 135.416  1.00  0.00    -0.313 N 
ENDROOT
BRANCH   1   2
ATOM      2  C   UNL     1     141.300  97.475 135.596  1.00  0.00     0.122 C 
ATOM      3  C   UNL     1     140.777  98.770 134.985  1.00  0.00     0.028 C 
ENDBRANCH   1   2
BRANCH   1   4
ATOM      4  C   UNL     1     143.385  97.777 134.243  1.00  0.00     0.223 C 
ATOM      5  O   UNL     1     143.296  97.256 133.129  1.00  0.00    -0.275 OA
ATOM      6  C   UNL     1     144.235  99.024 134.366  1.00  0.00     0.115 C 
ENDBRANCH   1   4
BRANCH   1   7
ATOM      7  C   UNL     1     143.492  96.596 136.443  1.00  0.00     0.044 A 
ATOM      8  C   UNL     1     144.495  95.669 136.124  1.00  0.00     0.026 A 
ATOM      9  C   UNL     1     143.259  96.822 137.814  1.00  0.00     0.036 A 
ATOM     10  C   UNL     1     145.203  94.976 137.112  1.00  0.00     0.003 A 
ATOM     11  C   UNL     1     143.964  96.139 138.825  1.00  0.00     0.002 A 
ATOM     12  C   UNL     1     144.936  95.204 138.456  1.00  0.00     0.010 A 
BRANCH  11  13
ATOM     13  C   UNL     1     143.681  96.407 140.253  1.00  0.00     0.076 C 
ATOM     14  C   UNL     1     142.612  95.821 140.826  1.00  0.00     0.049 C 
ATOM     15  N   UNL     1     144.507  97.237 141.039  1.00  0.00    -0.213 N 
ATOM     16  C   UNL     1     142.391  96.122 142.263  1.00  0.00     0.116 C 
ATOM     17  N   UNL     1     145.638  97.906 140.671  1.00  0.00    -0.173 NA
ATOM     18  C   UNL     1     144.209  97.462 142.396  1.00  0.00     0.173 A 
ATOM     19  N   UNL     1     143.128  96.886 143.009  1.00  0.00    -0.236 NA
ATOM     20  C   UNL     1     146.026  98.552 141.771  1.00  0.00     0.157 A 
ATOM     21  C   UNL     1     145.185  98.313 142.862  1.00  0.00     0.117 A 
ATOM     22  C   UNL     1     145.309  98.831 144.180  1.00  0.00     0.105 C 
ATOM     23  N   UNL     1     145.448  99.275 145.243  1.00  0.00    -0.192 NA
ENDBRANCH  11  13
ENDBRANCH   1   7
TORSDOF 4
ENDMDL
MODEL 8
REMARK VINA RESULT:    -6.750      2.886      4.864
REMARK INTER + INTRA:          -8.826
REMARK INTER:                  -8.232
REMARK INTRA:                  -0.594
REMARK UNBOUND:                -0.497
REMARK SMILES CCN(C(C)=O)c1cccc(-c2ccnc3c(C#N)cnn23)c1
REMARK SMILES IDX 3 1 2 2 1 3 4 4 6 5 5 6 7 7 8 8 23 9 9 10 11 11 10 12 12 13
REMARK SMILES IDX 13 14 22 15 14 16 21 17 16 18 15 19 20 20 17 21 18 22 19 23
REMARK H PARENT
ROOT
ATOM      1  N   UNL     1     141.730  98.106 134.933  1.00  0.00    -0.313 N 
ENDROOT
BRANCH   1   2
ATOM      2  C   UNL     1     142.636  98.479 133.830  1.00  0.00     0.122 C 
ATOM      3  C   UNL     1     144.012  98.909 134.326  1.00  0.00     0.028 C 
ENDBRANCH   1   2
BRANCH   1   4
ATOM      4  C   UNL     1     140.529  98.815 135.141  1.00  0.00     0.223 C 
ATOM      5  O   UNL     1     140.092  99.177 136.235  1.00  0.00    -0.275 OA
ATOM      6  C   UNL     1     139.715  99.164 133.913  1.00  0.00     0.115 C 
ENDBRANCH   1   4
BRANCH   1   7
ATOM      7  C   UNL     1     142.153  97.046 135.833  1.00  0.00     0.044 A 
ATOM      8  C   UNL     1     142.079  95.694 135.472  1.00  0.00     0.026 A 
ATOM      9  C   UNL     1     142.691  97.329 137.105  1.00  0.00     0.036 A 
ATOM     10  C   UNL     1     142.483  94.674 136.341  1.00  0.00     0.003 A 
ATOM     11  C   UNL     1     143.110  96.318 137.992  1.00  0.00     0.002 A 
ATOM     12  C   UNL     1     142.990  94.982 137.598  1.00  0.00     0.010 A 
BRANCH  11  13
ATOM     13  C   UNL     1     143.666  96.664 139.319  1.00  0.00     0.076 C 
ATOM     14  C   UNL     1     144.920  97.152 139.393  1.00  0.00     0.049 C 
ATOM     15  N   UNL     1     142.920  96.521 140.507  1.00  0.00    -0.213 N 
ATOM     16  C   UNL     1     145.414  97.490 140.751  1.00  0.00     0.116 C 
ATOM     17  N   UNL     1     141.640  96.071 140.659  1.00  0.00    -0.173 NA
ATOM     18  C   UNL     1     143.481  96.869 141.750  1.00  0.00     0.173 A 
ATOM     19  N   UNL     1     144.753  97.363 141.861  1.00  0.00    -0.236 NA
ATOM     20  C   UNL     1     141.416  96.116 141.972  1.00  0.00     0.157 A 
ATOM     21  C   UNL     1     142.513  96.602 142.691  1.00  0.00     0.117 A 
ATOM     22  C   UNL     1     142.613  96.788 144.096  1.00  0.00     0.105 C 
ATOM     23  N   UNL     1     142.652  96.926 145.248  1.00  0.00    -0.192 NA
ENDBRANCH  11  13
ENDBRANCH   1   7
TORSDOF 4
ENDMDL
MODEL 9
REMARK VINA RESULT:    -6.612      2.519      4.380
REMARK INTER + INTRA:          -8.654
REMARK INTER:                  -7.911
REMARK INTRA:                  -0.744
REMARK UNBOUND:                -0.497
REMARK SMILES CCN(C(C)=O)c1cccc(-c2ccnc3c(C#N)cnn23)c1
REMARK SMILES IDX 3 1 2 2 1 3 4 4 6 5 5 6 7 7 8 8 23 9 9 10 11 11 10 12 12 13
REMARK SMILES IDX 13 14 22 15 14 16 21 17 16 18 15 19 20 20 17 21 18 22 19 23
REMARK H PARENT
ROOT
ATOM      1  N   UNL     1     142.326  97.155 135.341  1.00  0.00    -0.313 N 
ENDROOT
BRANCH   1   2
ATOM      2  C   UNL     1     140.899  96.998 135.682  1.00  0.00     0.122 C 
ATOM      3  C   UNL     1     140.302  98.263 136.289  1.00  0.00     0.028 C 
ENDBRANCH   1   2
BRANCH   1   4
ATOM      4  C   UNL     1     142.708  97.816 134.155  1.00  0.00     0.223 C 
ATOM      5  O   UNL     1     142.172  97.675 133.053  1.00  0.00    -0.275 OA
ATOM      6  C   UNL     1     143.867  98.784 134.250  1.00  0.00     0.115 C 
ENDBRANCH   1   4
BRANCH   1   7
ATOM      7  C   UNL     1     143.308  96.541 136.218  1.00  0.00     0.044 A 
ATOM      8  C   UNL     1     144.166  95.525 135.774  1.00  0.00     0.026 A 
ATOM      9  C   UNL     1     143.470  96.961 137.554  1.00  0.00     0.036 A 
ATOM     10  C   UNL     1     145.110  94.932 136.620  1.00  0.00     0.003 A 
ATOM     11  C   UNL     1     144.418  96.381 138.421  1.00  0.00     0.002 A 
ATOM     12  C   UNL     1     145.232  95.352 137.939  1.00  0.00     0.010 A 
BRANCH  11  13
ATOM     13  C   UNL     1     144.548  96.853 139.817  1.00  0.00     0.076 C 
ATOM     14  C   UNL     1     145.664  97.518 140.178  1.00  0.00     0.049 C 
ATOM     15  N   UNL     1     143.535  96.652 140.777  1.00  0.00    -0.213 N 
ATOM     16  C   UNL     1     145.727  97.975 141.589  1.00  0.00     0.116 C 
ATOM     17  N   UNL     1     142.330  96.030 140.623  1.00  0.00    -0.173 NA
ATOM     18  C   UNL     1     143.693  97.123 142.093  1.00  0.00     0.173 A 
ATOM     19  N   UNL     1     144.815  97.798 142.494  1.00  0.00    -0.236 NA
ATOM     20  C   UNL     1     141.757  96.093 141.825  1.00  0.00     0.157 A 
ATOM     21  C   UNL     1     142.550  96.757 142.766  1.00  0.00     0.117 A 
ATOM     22  C   UNL     1     142.244  97.009 144.131  1.00  0.00     0.105 C 
ATOM     23  N   UNL     1     141.954  97.196 145.240  1.00  0.00    -0.192 NA
ENDBRANCH  11  13
ENDBRANCH   1   7
TORSDOF 4
ENDMDL
