MODEL 1
REMARK VINA RESULT:    -6.870      0.000      0.000
REMARK INTER + INTRA:          -7.883
REMARK INTER:                  -7.271
REMARK INTRA:                  -0.612
REMARK UNBOUND:                -0.612
REMARK SMILES Cc1nnc2n1-c1ccc(Cl)cc1C(c1ccccc1Cl)=NC2
REMARK SMILES IDX 1 1 2 2 3 3 4 4 5 5 6 6 7 7 8 8 9 9 10 10 11 11 12 12 13 13
REMARK SMILES IDX 14 14 22 15 23 16 15 17 16 18 20 19 17 20 19 21 18 22 21 23
REMARK H PARENT
ROOT
ATOM      1  C   UNL     1     141.901  95.378 137.187  1.00  0.00     0.090 C 
ATOM      2  C   UNL     1     141.443  96.726 136.778  1.00  0.00     0.134 A 
ATOM      3  N   UNL     1     140.927  97.612 137.606  1.00  0.00    -0.135 NA
ATOM      4  N   UNL     1     140.476  98.672 136.874  1.00  0.00    -0.133 NA
ATOM      5  C   UNL     1     140.727  98.427 135.607  1.00  0.00     0.159 A 
ATOM      6  N   UNL     1     141.381  97.221 135.482  1.00  0.00    -0.281 N 
ATOM      7  C   UNL     1     141.913  96.688 134.278  1.00  0.00     0.058 A 
ATOM      8  C   UNL     1     143.110  95.951 134.328  1.00  0.00     0.029 A 
ATOM      9  C   UNL     1     143.689  95.455 133.159  1.00  0.00     0.023 A 
ATOM     10  C   UNL     1     143.087  95.697 131.932  1.00  0.00     0.041 A 
ATOM     11  Cl  UNL     1     143.807  95.094 130.491  1.00  0.00    -0.084 Cl
ATOM     12  C   UNL     1     141.903  96.427 131.860  1.00  0.00     0.033 A 
ATOM     13  C   UNL     1     141.299  96.926 133.029  1.00  0.00     0.026 A 
ATOM     14  C   UNL     1     139.971  97.605 132.874  1.00  0.00     0.076 C 
ATOM     15  N   UNL     1     139.574  98.653 133.507  1.00  0.00    -0.276 NA
ATOM     16  C   UNL     1     140.459  99.313 134.456  1.00  0.00     0.220 C 
ENDROOT
BRANCH  14  17
ATOM     17  C   UNL     1     138.993  96.993 131.937  1.00  0.00     0.019 A 
ATOM     18  C   UNL     1     138.359  95.809 132.333  1.00  0.00     0.012 A 
ATOM     19  C   UNL     1     138.685  97.584 130.706  1.00  0.00     0.050 A 
ATOM     20  C   UNL     1     137.423  95.209 131.491  1.00  0.00     0.001 A 
ATOM     21  C   UNL     1     137.746  96.975 129.869  1.00  0.00     0.021 A 
ATOM     22  C   UNL     1     137.117  95.791 130.261  1.00  0.00     0.002 A 
ATOM     23  Cl  UNL     1     139.469  99.015 130.143  1.00  0.00    -0.084 Cl
ENDBRANCH  14  17
TORSDOF 1
ENDMDL
MODEL 2
REMARK VINA RESULT:    -6.761      2.976      6.108
REMARK INTER + INTRA:          -7.768
REMARK INTER:                  -7.133
REMARK INTRA:                  -0.635
REMARK UNBOUND:                -0.612
REMARK SMILES Cc1nnc2n1-c1ccc(Cl)cc1C(c1ccccc1Cl)=NC2
REMARK SMILES IDX 1 1 2 2 3 3 4 4 5 5 6 6 7 7 8 8 9 9 10 10 11 11 12 12 13 13
REMARK SMILES IDX 14 14 22 15 23 16 15 17 16 18 20 19 17 20 19 21 18 22 21 23
REMARK H PARENT
ROOT
ATOM      1  C   UNL     1     139.187  97.742 133.614  1.00  0.00     0.090 C 
ATOM      2  C   UNL     1     140.448  98.138 132.943  1.00  0.00     0.134 A 
ATOM      3  N   UNL     1     140.512  98.592 131.707  1.00  0.00    -0.135 NA
ATOM      4  N   UNL     1     141.828  98.710 131.362  1.00  0.00    -0.133 NA
ATOM      5  C   UNL     1     142.553  98.332 132.391  1.00  0.00     0.159 A 
ATOM      6  N   UNL     1     141.733  97.996 133.446  1.00  0.00    -0.281 N 
ATOM      7  C   UNL     1     142.166  97.656 134.755  1.00  0.00     0.058 A 
ATOM      8  C   UNL     1     141.388  98.055 135.856  1.00  0.00     0.029 A 
ATOM      9  C   UNL     1     141.806  97.783 137.160  1.00  0.00     0.023 A 
ATOM     10  C   UNL     1     143.007  97.121 137.376  1.00  0.00     0.041 A 
ATOM     11  Cl  UNL     1     143.527  96.795 138.983  1.00  0.00    -0.084 Cl
ATOM     12  C   UNL     1     143.794  96.720 136.300  1.00  0.00     0.033 A 
ATOM     13  C   UNL     1     143.383  96.976 134.979  1.00  0.00     0.026 A 
ATOM     14  C   UNL     1     144.233  96.414 133.879  1.00  0.00     0.076 C 
ATOM     15  N   UNL     1     144.518  96.994 132.765  1.00  0.00    -0.276 NA
ATOM     16  C   UNL     1     144.027  98.338 132.495  1.00  0.00     0.220 C 
ENDROOT
BRANCH  14  17
ATOM     17  C   UNL     1     144.767  95.039 134.059  1.00  0.00     0.019 A 
ATOM     18  C   UNL     1     146.127  94.901 134.367  1.00  0.00     0.012 A 
ATOM     19  C   UNL     1     143.946  93.911 133.954  1.00  0.00     0.050 A 
ATOM     20  C   UNL     1     146.667  93.630 134.559  1.00  0.00     0.001 A 
ATOM     21  C   UNL     1     144.498  92.641 134.148  1.00  0.00     0.021 A 
ATOM     22  C   UNL     1     145.855  92.501 134.449  1.00  0.00     0.002 A 
ATOM     23  Cl  UNL     1     142.277  94.015 133.529  1.00  0.00    -0.084 Cl
ENDBRANCH  14  17
TORSDOF 1
ENDMDL
MODEL 3
REMARK VINA RESULT:    -6.659      2.569      5.382
REMARK INTER + INTRA:          -7.660
REMARK INTER:                  -7.174
REMARK INTRA:                  -0.486
REMARK UNBOUND:                -0.612
REMARK SMILES Cc1nnc2n1-c1ccc(Cl)cc1C(c1ccccc1Cl)=NC2
REMARK SMILES IDX 1 1 2 2 3 3 4 4 5 5 6 6 7 7 8 8 9 9 10 10 11 11 12 12 13 13
REMARK SMILES IDX 14 14 22 15 23 16 15 17 16 18 20 19 17 20 19 21 18 22 21 23
REMARK H PARENT
ROOT
ATOM      1  C   UNL     1     140.769  99.851 131.374  1.00  0.00     0.090 C 
ATOM      2  C   UNL     1     140.037  98.586 131.621  1.00  0.00     0.134 A 
ATOM      3  N   UNL     1     138.752  98.419 131.376  1.00  0.00    -0.135 NA
ATOM      4  N   UNL     1     138.378  97.199 131.860  1.00  0.00    -0.133 NA
ATOM      5  C   UNL     1     139.439  96.631 132.391  1.00  0.00     0.159 A 
ATOM      6  N   UNL     1     140.538  97.446 132.233  1.00  0.00    -0.281 N 
ATOM      7  C   UNL     1     141.874  97.109 132.576  1.00  0.00     0.058 A 
ATOM      8  C   UNL     1     142.925  97.578 131.767  1.00  0.00     0.029 A 
ATOM      9  C   UNL     1     144.247  97.226 132.043  1.00  0.00     0.023 A 
ATOM     10  C   UNL     1     144.531  96.397 133.120  1.00  0.00     0.041 A 
ATOM     11  Cl  UNL     1     146.160  95.957 133.453  1.00  0.00    -0.084 Cl
ATOM     12  C   UNL     1     143.505  95.920 133.932  1.00  0.00     0.033 A 
ATOM     13  C   UNL     1     142.168  96.273 133.675  1.00  0.00     0.026 A 
ATOM     14  C   UNL     1     141.138  95.807 134.659  1.00  0.00     0.076 C 
ATOM     15  N   UNL     1     139.956  95.380 134.381  1.00  0.00    -0.276 NA
ATOM     16  C   UNL     1     139.522  95.284 132.994  1.00  0.00     0.220 C 
ENDROOT
BRANCH  14  17
ATOM     17  C   UNL     1     141.486  95.881 136.102  1.00  0.00     0.019 A 
ATOM     18  C   UNL     1     142.097  94.764 136.687  1.00  0.00     0.012 A 
ATOM     19  C   UNL     1     141.242  97.032 136.860  1.00  0.00     0.050 A 
ATOM     20  C   UNL     1     142.454  94.796 138.035  1.00  0.00     0.001 A 
ATOM     21  C   UNL     1     141.603  97.054 138.210  1.00  0.00     0.021 A 
ATOM     22  C   UNL     1     142.207  95.938 138.796  1.00  0.00     0.002 A 
ATOM     23  Cl  UNL     1     140.449  98.420 136.209  1.00  0.00    -0.084 Cl
ENDBRANCH  14  17
TORSDOF 1
ENDMDL
MODEL 4
REMARK VINA RESULT:    -6.279      3.072      4.753
REMARK INTER + INTRA:          -7.257
REMARK INTER:                  -6.629
REMARK INTRA:                  -0.628
REMARK UNBOUND:                -0.612
REMARK SMILES Cc1nnc2n1-c1ccc(Cl)cc1C(c1ccccc1Cl)=NC2
REMARK SMILES IDX 1 1 2 2 3 3 4 4 5 5 6 6 7 7 8 8 9 9 10 10 11 11 12 12 13 13
REMARK SMILES IDX 14 14 22 15 23 16 15 17 16 18 20 19 17 20 19 21 18 22 21 23
REMARK H PARENT
ROOT
ATOM      1  C   UNL     1     145.431  94.986 135.952  1.00  0.00     0.090 C 
ATOM      2  C   UNL     1     144.439  94.312 135.083  1.00  0.00     0.134 A 
ATOM      3  N   UNL     1     144.743  93.375 134.206  1.00  0.00    -0.135 NA
ATOM      4  N   UNL     1     143.624  93.089 133.478  1.00  0.00    -0.133 NA
ATOM      5  C   UNL     1     142.647  93.849 133.920  1.00  0.00     0.159 A 
ATOM      6  N   UNL     1     143.090  94.622 134.972  1.00  0.00    -0.281 N 
ATOM      7  C   UNL     1     142.283  95.473 135.771  1.00  0.00     0.058 A 
ATOM      8  C   UNL     1     142.572  95.597 137.142  1.00  0.00     0.029 A 
ATOM      9  C   UNL     1     141.771  96.386 137.970  1.00  0.00     0.023 A 
ATOM     10  C   UNL     1     140.671  97.047 137.441  1.00  0.00     0.041 A 
ATOM     11  Cl  UNL     1     139.678  98.010 138.464  1.00  0.00    -0.084 Cl
ATOM     12  C   UNL     1     140.365  96.934 136.087  1.00  0.00     0.033 A 
ATOM     13  C   UNL     1     141.168  96.153 135.235  1.00  0.00     0.026 A 
ATOM     14  C   UNL     1     140.834  96.174 133.774  1.00  0.00     0.076 C 
ATOM     15  N   UNL     1     140.875  95.171 132.969  1.00  0.00    -0.276 NA
ATOM     16  C   UNL     1     141.241  93.851 133.464  1.00  0.00     0.220 C 
ENDROOT
BRANCH  14  17
ATOM     17  C   UNL     1     140.462  97.482 133.174  1.00  0.00     0.019 A 
ATOM     18  C   UNL     1     139.105  97.730 132.935  1.00  0.00     0.012 A 
ATOM     19  C   UNL     1     141.423  98.456 132.878  1.00  0.00     0.050 A 
ATOM     20  C   UNL     1     138.709  98.950 132.388  1.00  0.00     0.001 A 
ATOM     21  C   UNL     1     141.017  99.675 132.328  1.00  0.00     0.021 A 
ATOM     22  C   UNL     1     139.664  99.921 132.084  1.00  0.00     0.002 A 
ATOM     23  Cl  UNL     1     143.113  98.189 133.104  1.00  0.00    -0.084 Cl
ENDBRANCH  14  17
TORSDOF 1
ENDMDL
MODEL 5
REMARK VINA RESULT:    -6.174      2.530      5.395
REMARK INTER + INTRA:          -7.146
REMARK INTER:                  -6.512
REMARK INTRA:                  -0.634
REMARK UNBOUND:                -0.612
REMARK SMILES Cc1nnc2n1-c1ccc(Cl)cc1C(c1ccccc1Cl)=NC2
REMARK SMILES IDX 1 1 2 2 3 3 4 4 5 5 6 6 7 7 8 8 9 9 10 10 11 11 12 12 13 13
REMARK SMILES IDX 14 14 22 15 23 16 15 17 16 18 20 19 17 20 19 21 18 22 21 23
REMARK H PARENT
ROOT
ATOM      1  C   UNL     1     140.029  99.129 134.630  1.00  0.00     0.090 C 
ATOM      2  C   UNL     1     140.495  98.329 135.787  1.00  0.00     0.134 A 
ATOM      3  N   UNL     1     140.602  98.801 137.013  1.00  0.00    -0.135 NA
ATOM      4  N   UNL     1     141.201  97.851 137.788  1.00  0.00    -0.133 NA
ATOM      5  C   UNL     1     141.450  96.806 137.029  1.00  0.00     0.159 A 
ATOM      6  N   UNL     1     140.985  97.031 135.752  1.00  0.00    -0.281 N 
ATOM      7  C   UNL     1     140.973  96.082 134.696  1.00  0.00     0.058 A 
ATOM      8  C   UNL     1     139.903  96.091 133.783  1.00  0.00     0.029 A 
ATOM      9  C   UNL     1     139.830  95.142 132.762  1.00  0.00     0.023 A 
ATOM     10  C   UNL     1     140.817  94.171 132.649  1.00  0.00     0.041 A 
ATOM     11  Cl  UNL     1     140.721  92.996 131.397  1.00  0.00    -0.084 Cl
ATOM     12  C   UNL     1     141.883  94.143 133.545  1.00  0.00     0.033 A 
ATOM     13  C   UNL     1     141.978  95.099 134.573  1.00  0.00     0.026 A 
ATOM     14  C   UNL     1     143.212  95.064 135.424  1.00  0.00     0.076 C 
ATOM     15  N   UNL     1     143.266  95.263 136.694  1.00  0.00    -0.276 NA
ATOM     16  C   UNL     1     142.046  95.520 137.447  1.00  0.00     0.220 C 
ENDROOT
BRANCH  14  17
ATOM     17  C   UNL     1     144.510  94.823 134.741  1.00  0.00     0.019 A 
ATOM     18  C   UNL     1     145.101  93.562 134.887  1.00  0.00     0.012 A 
ATOM     19  C   UNL     1     145.120  95.805 133.952  1.00  0.00     0.050 A 
ATOM     20  C   UNL     1     146.312  93.287 134.251  1.00  0.00     0.001 A 
ATOM     21  C   UNL     1     146.333  95.520 133.319  1.00  0.00     0.021 A 
ATOM     22  C   UNL     1     146.927  94.264 133.469  1.00  0.00     0.002 A 
ATOM     23  Cl  UNL     1     144.464  97.391 133.775  1.00  0.00    -0.084 Cl
ENDBRANCH  14  17
TORSDOF 1
ENDMDL
MODEL 6
REMARK VINA RESULT:    -6.123      2.035      5.223
REMARK INTER + INTRA:          -7.092
REMARK INTER:                  -6.457
REMARK INTRA:                  -0.635
REMARK UNBOUND:                -0.612
REMARK SMILES Cc1nnc2n1-c1ccc(Cl)cc1C(c1ccccc1Cl)=NC2
REMARK SMILES IDX 1 1 2 2 3 3 4 4 5 5 6 6 7 7 8 8 9 9 10 10 11 11 12 12 13 13
REMARK SMILES IDX 14 14 22 15 23 16 15 17 16 18 20 19 17 20 19 21 18 22 21 23
REMARK H PARENT
ROOT
ATOM      1  C   UNL     1     140.038  99.612 130.624  1.00  0.00     0.090 C 
ATOM      2  C   UNL     1     139.972  99.547 132.103  1.00  0.00     0.134 A 
ATOM      3  N   UNL     1     139.813 100.599 132.881  1.00  0.00    -0.135 NA
ATOM      4  N   UNL     1     139.952 100.199 134.178  1.00  0.00    -0.133 NA
ATOM      5  C   UNL     1     140.189  98.905 134.181  1.00  0.00     0.159 A 
ATOM      6  N   UNL     1     140.172  98.421 132.891  1.00  0.00    -0.281 N 
ATOM      7  C   UNL     1     140.272  97.055 132.518  1.00  0.00     0.058 A 
ATOM      8  C   UNL     1     139.540  96.596 131.409  1.00  0.00     0.029 A 
ATOM      9  C   UNL     1     139.572  95.249 131.043  1.00  0.00     0.023 A 
ATOM     10  C   UNL     1     140.326  94.349 131.784  1.00  0.00     0.041 A 
ATOM     11  Cl  UNL     1     140.358  92.689 131.337  1.00  0.00    -0.084 Cl
ATOM     12  C   UNL     1     141.056  94.783 132.888  1.00  0.00     0.033 A 
ATOM     13  C   UNL     1     141.044  96.139 133.265  1.00  0.00     0.026 A 
ATOM     14  C   UNL     1     141.942  96.540 134.396  1.00  0.00     0.076 C 
ATOM     15  N   UNL     1     141.665  97.387 135.325  1.00  0.00    -0.276 NA
ATOM     16  C   UNL     1     140.359  98.032 135.360  1.00  0.00     0.220 C 
ENDROOT
BRANCH  14  17
ATOM     17  C   UNL     1     143.303  95.945 134.435  1.00  0.00     0.019 A 
ATOM     18  C   UNL     1     143.553  94.946 135.385  1.00  0.00     0.012 A 
ATOM     19  C   UNL     1     144.306  96.340 133.542  1.00  0.00     0.050 A 
ATOM     20  C   UNL     1     144.812  94.348 135.447  1.00  0.00     0.001 A 
ATOM     21  C   UNL     1     145.564  95.736 133.613  1.00  0.00     0.021 A 
ATOM     22  C   UNL     1     145.816  94.743 134.563  1.00  0.00     0.002 A 
ATOM     23  Cl  UNL     1     144.072  97.599 132.385  1.00  0.00    -0.084 Cl
ENDBRANCH  14  17
TORSDOF 1
ENDMDL
MODEL 7
REMARK VINA RESULT:    -5.840      3.597      4.484
REMARK INTER + INTRA:          -6.793
REMARK INTER:                  -6.176
REMARK INTRA:                  -0.617
REMARK UNBOUND:                -0.612
REMARK SMILES Cc1nnc2n1-c1ccc(Cl)cc1C(c1ccccc1Cl)=NC2
REMARK SMILES IDX 1 1 2 2 3 3 4 4 5 5 6 6 7 7 8 8 9 9 10 10 11 11 12 12 13 13
REMARK SMILES IDX 14 14 22 15 23 16 15 17 16 18 20 19 17 20 19 21 18 22 21 23
REMARK H PARENT
ROOT
ATOM      1  C   UNL     1     141.905  95.861 139.343  1.00  0.00     0.090 C 
ATOM      2  C   UNL     1     141.865  96.835 138.227  1.00  0.00     0.134 A 
ATOM      3  N   UNL     1     140.963  97.791 138.116  1.00  0.00    -0.135 NA
ATOM      4  N   UNL     1     141.128  98.397 136.904  1.00  0.00    -0.133 NA
ATOM      5  C   UNL     1     142.132  97.810 136.289  1.00  0.00     0.159 A 
ATOM      6  N   UNL     1     142.672  96.834 137.098  1.00  0.00    -0.281 N 
ATOM      7  C   UNL     1     143.839  96.076 136.815  1.00  0.00     0.058 A 
ATOM      8  C   UNL     1     144.695  95.720 137.873  1.00  0.00     0.029 A 
ATOM      9  C   UNL     1     145.877  95.020 137.628  1.00  0.00     0.023 A 
ATOM     10  C   UNL     1     146.221  94.678 136.326  1.00  0.00     0.041 A 
ATOM     11  Cl  UNL     1     147.683  93.824 136.025  1.00  0.00    -0.084 Cl
ATOM     12  C   UNL     1     145.389  95.024 135.264  1.00  0.00     0.033 A 
ATOM     13  C   UNL     1     144.188  95.721 135.494  1.00  0.00     0.026 A 
ATOM     14  C   UNL     1     143.300  95.957 134.311  1.00  0.00     0.076 C 
ATOM     15  N   UNL     1     142.621  97.023 134.068  1.00  0.00    -0.276 NA
ATOM     16  C   UNL     1     142.702  98.162 134.973  1.00  0.00     0.220 C 
ENDROOT
BRANCH  14  17
ATOM     17  C   UNL     1     143.142  94.844 133.338  1.00  0.00     0.019 A 
ATOM     18  C   UNL     1     142.216  93.838 133.639  1.00  0.00     0.012 A 
ATOM     19  C   UNL     1     143.869  94.803 132.142  1.00  0.00     0.050 A 
ATOM     20  C   UNL     1     142.025  92.782 132.747  1.00  0.00     0.001 A 
ATOM     21  C   UNL     1     143.672  93.741 131.256  1.00  0.00     0.021 A 
ATOM     22  C   UNL     1     142.752  92.733 131.558  1.00  0.00     0.002 A 
ATOM     23  Cl  UNL     1     145.059  95.987 131.740  1.00  0.00    -0.084 Cl
ENDBRANCH  14  17
TORSDOF 1
ENDMDL
MODEL 8
REMARK VINA RESULT:    -5.785      2.999      5.901
REMARK INTER + INTRA:          -6.735
REMARK INTER:                  -6.103
REMARK INTRA:                  -0.632
REMARK UNBOUND:                -0.612
REMARK SMILES Cc1nnc2n1-c1ccc(Cl)cc1C(c1ccccc1Cl)=NC2
REMARK SMILES IDX 1 1 2 2 3 3 4 4 5 5 6 6 7 7 8 8 9 9 10 10 11 11 12 12 13 13
REMARK SMILES IDX 14 14 22 15 23 16 15 17 16 18 20 19 17 20 19 21 18 22 21 23
REMARK H PARENT
ROOT
ATOM      1  C   UNL     1     142.594  97.984 131.401  1.00  0.00     0.090 C 
ATOM      2  C   UNL     1     141.442  97.392 132.121  1.00  0.00     0.134 A 
ATOM      3  N   UNL     1     140.208  97.846 132.035  1.00  0.00    -0.135 NA
ATOM      4  N   UNL     1     139.438  97.171 132.938  1.00  0.00    -0.133 NA
ATOM      5  C   UNL     1     140.209  96.307 133.563  1.00  0.00     0.159 A 
ATOM      6  N   UNL     1     141.489  96.369 133.058  1.00  0.00    -0.281 N 
ATOM      7  C   UNL     1     142.559  95.504 133.408  1.00  0.00     0.058 A 
ATOM      8  C   UNL     1     143.488  95.133 132.419  1.00  0.00     0.029 A 
ATOM      9  C   UNL     1     144.524  94.244 132.712  1.00  0.00     0.023 A 
ATOM     10  C   UNL     1     144.636  93.711 133.989  1.00  0.00     0.041 A 
ATOM     11  Cl  UNL     1     145.907  92.608 134.347  1.00  0.00    -0.084 Cl
ATOM     12  C   UNL     1     143.725  94.063 134.982  1.00  0.00     0.033 A 
ATOM     13  C   UNL     1     142.681  94.965 134.707  1.00  0.00     0.026 A 
ATOM     14  C   UNL     1     141.813  95.374 135.858  1.00  0.00     0.076 C 
ATOM     15  N   UNL     1     140.538  95.555 135.824  1.00  0.00    -0.276 NA
ATOM     16  C   UNL     1     139.801  95.327 134.590  1.00  0.00     0.220 C 
ENDROOT
BRANCH  14  17
ATOM     17  C   UNL     1     142.479  95.644 137.159  1.00  0.00     0.019 A 
ATOM     18  C   UNL     1     142.313  94.707 138.186  1.00  0.00     0.012 A 
ATOM     19  C   UNL     1     143.273  96.780 137.357  1.00  0.00     0.050 A 
ATOM     20  C   UNL     1     142.934  94.913 139.418  1.00  0.00     0.001 A 
ATOM     21  C   UNL     1     143.890  96.978 138.596  1.00  0.00     0.021 A 
ATOM     22  C   UNL     1     143.720  96.047 139.623  1.00  0.00     0.002 A 
ATOM     23  Cl  UNL     1     143.474  97.993 136.146  1.00  0.00    -0.084 Cl
ENDBRANCH  14  17
TORSDOF 1
ENDMDL
MODEL 9
REMARK VINA RESULT:    -5.665      3.878      7.161
REMARK INTER + INTRA:          -6.608
REMARK INTER:                  -5.982
REMARK INTRA:                  -0.626
REMARK UNBOUND:                -0.612
REMARK SMILES Cc1nnc2n1-c1ccc(Cl)cc1C(c1ccccc1Cl)=NC2
REMARK SMILES IDX 1 1 2 2 3 3 4 4 5 5 6 6 7 7 8 8 9 9 10 10 11 11 12 12 13 13
REMARK SMILES IDX 14 14 22 15 23 16 15 17 16 18 20 19 17 20 19 21 18 22 21 23
REMARK H PARENT
ROOT
ATOM      1  C   UNL     1     140.145  95.722 133.238  1.00  0.00     0.090 C 
ATOM      2  C   UNL     1     141.473  96.233 132.824  1.00  0.00     0.134 A 
ATOM      3  N   UNL     1     141.740  96.703 131.622  1.00  0.00    -0.135 NA
ATOM      4  N   UNL     1     143.082  96.939 131.541  1.00  0.00    -0.133 NA
ATOM      5  C   UNL     1     143.621  96.616 132.697  1.00  0.00     0.159 A 
ATOM      6  N   UNL     1     142.642  96.200 133.572  1.00  0.00    -0.281 N 
ATOM      7  C   UNL     1     142.836  95.886 134.943  1.00  0.00     0.058 A 
ATOM      8  C   UNL     1     141.825  96.206 135.866  1.00  0.00     0.029 A 
ATOM      9  C   UNL     1     142.000  95.960 137.229  1.00  0.00     0.023 A 
ATOM     10  C   UNL     1     143.188  95.403 137.683  1.00  0.00     0.041 A 
ATOM     11  Cl  UNL     1     143.407  95.109 139.364  1.00  0.00    -0.084 Cl
ATOM     12  C   UNL     1     144.204  95.082 136.786  1.00  0.00     0.033 A 
ATOM     13  C   UNL     1     144.040  95.313 135.408  1.00  0.00     0.026 A 
ATOM     14  C   UNL     1     145.135  94.839 134.502  1.00  0.00     0.076 C 
ATOM     15  N   UNL     1     145.582  95.451 133.461  1.00  0.00    -0.276 NA
ATOM     16  C   UNL     1     145.039  96.749 133.088  1.00  0.00     0.220 C 
ENDROOT
BRANCH  14  17
ATOM     17  C   UNL     1     145.742  93.514 134.795  1.00  0.00     0.019 A 
ATOM     18  C   UNL     1     145.011  92.369 134.451  1.00  0.00     0.012 A 
ATOM     19  C   UNL     1     147.013  93.397 135.370  1.00  0.00     0.050 A 
ATOM     20  C   UNL     1     145.549  91.105 134.694  1.00  0.00     0.001 A 
ATOM     21  C   UNL     1     147.543  92.126 135.610  1.00  0.00     0.021 A 
ATOM     22  C   UNL     1     146.813  90.984 135.274  1.00  0.00     0.002 A 
ATOM     23  Cl  UNL     1     147.938  94.769 135.859  1.00  0.00    -0.084 Cl
ENDBRANCH  14  17
TORSDOF 1
ENDMDL
