MODEL 1
REMARK VINA RESULT:    -7.522      0.000      0.000
REMARK INTER + INTRA:          -9.582
REMARK INTER:                  -8.842
REMARK INTRA:                  -0.741
REMARK UNBOUND:                -0.741
REMARK SMILES Cc1ccc(-c2nc3ccc(C)cn3c2CC(=O)N(C)C)cc1
REMARK SMILES IDX 6 1 7 2 8 3 9 4 10 5 11 6 12 7 13 8 14 9 15 10 5 11 2 12
REMARK SMILES IDX 3 13 23 14 4 15 22 16 1 17 16 18 17 19 18 20 19 21 20 22
REMARK SMILES IDX 21 23
REMARK H PARENT
ROOT
ATOM      1  C   UNL     1     143.819  96.076 138.616  1.00  0.00     0.093 A 
ATOM      2  N   UNL     1     144.801  95.150 138.361  1.00  0.00    -0.228 NA
ATOM      3  C   UNL     1     144.992  95.193 137.063  1.00  0.00     0.137 A 
ATOM      4  C   UNL     1     145.862  94.437 136.228  1.00  0.00     0.048 C 
ATOM      5  C   UNL     1     145.857  94.636 134.897  1.00  0.00     0.009 C 
ATOM      6  C   UNL     1     144.975  95.618 134.274  1.00  0.00    -0.034 C 
ATOM      7  C   UNL     1     145.028  95.767 132.787  1.00  0.00     0.046 C 
ATOM      8  C   UNL     1     144.161  96.341 135.068  1.00  0.00     0.096 C 
ATOM      9  N   UNL     1     144.176  96.141 136.451  1.00  0.00    -0.303 N 
ATOM     10  C   UNL     1     143.459  96.763 137.465  1.00  0.00     0.060 A 
ENDROOT
BRANCH   1  11
ATOM     11  C   UNL     1     143.312  96.288 139.959  1.00  0.00     0.002 A 
ATOM     12  C   UNL     1     142.380  96.713 142.583  1.00  0.00    -0.051 A 
ATOM     13  C   UNL     1     143.680  97.086 142.223  1.00  0.00     0.004 A 
ATOM     14  C   UNL     1     141.549  96.128 141.620  1.00  0.00     0.004 A 
ATOM     15  C   UNL     1     144.145  96.863 140.925  1.00  0.00     0.011 A 
ATOM     16  C   UNL     1     142.015  95.907 140.321  1.00  0.00     0.011 A 
ATOM     17  C   UNL     1     141.870  96.976 143.969  1.00  0.00     0.044 C 
ENDBRANCH   1  11
BRANCH  10  18
ATOM     18  C   UNL     1     142.530  97.914 137.236  1.00  0.00     0.157 C 
BRANCH  18  19
ATOM     19  C   UNL     1     141.209  97.460 136.614  1.00  0.00     0.228 C 
ATOM     20  O   UNL     1     140.458  96.733 137.272  1.00  0.00    -0.274 OA
ATOM     21  N   UNL     1     140.887  97.872 135.328  1.00  0.00    -0.348 N 
ATOM     22  C   UNL     1     141.697  98.755 134.504  1.00  0.00     0.146 C 
ATOM     23  C   UNL     1     139.705  97.318 134.688  1.00  0.00     0.146 C 
ENDBRANCH  18  19
ENDBRANCH  10  18
TORSDOF 3
ENDMDL
MODEL 2
REMARK VINA RESULT:    -7.372      1.142      1.647
REMARK INTER + INTRA:          -9.406
REMARK INTER:                  -8.704
REMARK INTRA:                  -0.702
REMARK UNBOUND:                -0.741
REMARK SMILES Cc1ccc(-c2nc3ccc(C)cn3c2CC(=O)N(C)C)cc1
REMARK SMILES IDX 6 1 7 2 8 3 9 4 10 5 11 6 12 7 13 8 14 9 15 10 5 11 2 12
REMARK SMILES IDX 3 13 23 14 4 15 22 16 1 17 16 18 17 19 18 20 19 21 20 22
REMARK SMILES IDX 21 23
REMARK H PARENT
ROOT
ATOM      1  C   UNL     1     143.930  95.367 138.861  1.00  0.00     0.093 A 
ATOM      2  N   UNL     1     145.282  95.167 138.727  1.00  0.00    -0.228 NA
ATOM      3  C   UNL     1     145.478  94.953 137.446  1.00  0.00     0.137 A 
ATOM      4  C   UNL     1     146.670  94.657 136.727  1.00  0.00     0.048 C 
ATOM      5  C   UNL     1     146.616  94.438 135.400  1.00  0.00     0.009 C 
ATOM      6  C   UNL     1     145.356  94.497 134.665  1.00  0.00    -0.034 C 
ATOM      7  C   UNL     1     145.388  94.231 133.194  1.00  0.00     0.046 C 
ATOM      8  C   UNL     1     144.232  94.789 135.347  1.00  0.00     0.096 C 
ATOM      9  N   UNL     1     144.291  95.028 136.723  1.00  0.00    -0.303 N 
ATOM     10  C   UNL     1     143.292  95.361 137.629  1.00  0.00     0.060 A 
ENDROOT
BRANCH   1  11
ATOM     11  C   UNL     1     143.327  95.601 140.160  1.00  0.00     0.002 A 
ATOM     12  C   UNL     1     142.116  96.019 142.669  1.00  0.00    -0.051 A 
ATOM     13  C   UNL     1     141.697  94.969 141.846  1.00  0.00     0.004 A 
ATOM     14  C   UNL     1     143.148  96.858 142.230  1.00  0.00     0.004 A 
ATOM     15  C   UNL     1     142.290  94.770 140.596  1.00  0.00     0.011 A 
ATOM     16  C   UNL     1     143.741  96.657 140.980  1.00  0.00     0.011 A 
ATOM     17  C   UNL     1     141.500  96.217 144.022  1.00  0.00     0.044 C 
ENDBRANCH   1  11
BRANCH  10  18
ATOM     18  C   UNL     1     141.873  95.629 137.235  1.00  0.00     0.157 C 
BRANCH  18  19
ATOM     19  C   UNL     1     141.672  97.081 136.800  1.00  0.00     0.228 C 
ATOM     20  O   UNL     1     142.305  97.971 137.377  1.00  0.00    -0.274 OA
ATOM     21  N   UNL     1     140.784  97.365 135.771  1.00  0.00    -0.348 N 
ATOM     22  C   UNL     1     140.030  96.374 135.018  1.00  0.00     0.146 C 
ATOM     23  C   UNL     1     140.485  98.754 135.463  1.00  0.00     0.146 C 
ENDBRANCH  18  19
ENDBRANCH  10  18
TORSDOF 3
ENDMDL
MODEL 3
REMARK VINA RESULT:    -7.262      1.931      4.088
REMARK INTER + INTRA:          -9.276
REMARK INTER:                  -8.514
REMARK INTRA:                  -0.762
REMARK UNBOUND:                -0.741
REMARK SMILES Cc1ccc(-c2nc3ccc(C)cn3c2CC(=O)N(C)C)cc1
REMARK SMILES IDX 6 1 7 2 8 3 9 4 10 5 11 6 12 7 13 8 14 9 15 10 5 11 2 12
REMARK SMILES IDX 3 13 23 14 4 15 22 16 1 17 16 18 17 19 18 20 19 21 20 22
REMARK SMILES IDX 21 23
REMARK H PARENT
ROOT
ATOM      1  C   UNL     1     143.033  96.816 137.771  1.00  0.00     0.093 A 
ATOM      2  N   UNL     1     142.480  97.860 137.071  1.00  0.00    -0.228 NA
ATOM      3  C   UNL     1     142.949  97.749 135.850  1.00  0.00     0.137 A 
ATOM      4  C   UNL     1     142.748  98.565 134.701  1.00  0.00     0.048 C 
ATOM      5  C   UNL     1     143.374  98.266 133.548  1.00  0.00     0.009 C 
ATOM      6  C   UNL     1     144.264  97.115 133.436  1.00  0.00    -0.034 C 
ATOM      7  C   UNL     1     144.926  96.864 132.118  1.00  0.00     0.046 C 
ATOM      8  C   UNL     1     144.444  96.338 134.522  1.00  0.00     0.096 C 
ATOM      9  N   UNL     1     143.784  96.642 135.716  1.00  0.00    -0.303 N 
ATOM     10  C   UNL     1     143.789  95.996 136.945  1.00  0.00     0.060 A 
ENDROOT
BRANCH   1  11
ATOM     11  C   UNL     1     142.768  96.630 139.186  1.00  0.00     0.002 A 
ATOM     12  C   UNL     1     142.197  96.277 141.921  1.00  0.00    -0.051 A 
ATOM     13  C   UNL     1     141.164  96.290 140.978  1.00  0.00     0.004 A 
ATOM     14  C   UNL     1     143.518  96.439 141.487  1.00  0.00     0.004 A 
ATOM     15  C   UNL     1     141.448  96.478 139.623  1.00  0.00     0.011 A 
ATOM     16  C   UNL     1     143.800  96.626 140.130  1.00  0.00     0.011 A 
ATOM     17  C   UNL     1     141.898  96.048 143.373  1.00  0.00     0.044 C 
ENDBRANCH   1  11
BRANCH  10  18
ATOM     18  C   UNL     1     144.497  94.701 137.196  1.00  0.00     0.157 C 
BRANCH  18  19
ATOM     19  C   UNL     1     146.011  94.893 137.293  1.00  0.00     0.228 C 
ATOM     20  O   UNL     1     146.461  95.670 138.140  1.00  0.00    -0.274 OA
ATOM     21  N   UNL     1     146.841  94.194 136.427  1.00  0.00    -0.348 N 
ATOM     22  C   UNL     1     146.393  93.236 135.429  1.00  0.00     0.146 C 
ATOM     23  C   UNL     1     148.264  94.492 136.423  1.00  0.00     0.146 C 
ENDBRANCH  18  19
ENDBRANCH  10  18
TORSDOF 3
ENDMDL
MODEL 4
REMARK VINA RESULT:    -7.221      2.430      4.939
REMARK INTER + INTRA:          -9.228
REMARK INTER:                  -8.563
REMARK INTRA:                  -0.665
REMARK UNBOUND:                -0.741
REMARK SMILES Cc1ccc(-c2nc3ccc(C)cn3c2CC(=O)N(C)C)cc1
REMARK SMILES IDX 6 1 7 2 8 3 9 4 10 5 11 6 12 7 13 8 14 9 15 10 5 11 2 12
REMARK SMILES IDX 3 13 23 14 4 15 22 16 1 17 16 18 17 19 18 20 19 21 20 22
REMARK SMILES IDX 21 23
REMARK H PARENT
ROOT
ATOM      1  C   UNL     1     141.255  97.778 136.477  1.00  0.00     0.093 A 
ATOM      2  N   UNL     1     140.423  98.871 136.448  1.00  0.00    -0.228 NA
ATOM      3  C   UNL     1     140.233  99.131 135.175  1.00  0.00     0.137 A 
ATOM      4  C   UNL     1     139.489 100.166 134.541  1.00  0.00     0.048 C 
ATOM      5  C   UNL     1     139.471 100.253 133.198  1.00  0.00     0.009 C 
ATOM      6  C   UNL     1     140.199  99.306 132.359  1.00  0.00    -0.034 C 
ATOM      7  C   UNL     1     140.131  99.483 130.876  1.00  0.00     0.046 C 
ATOM      8  C   UNL     1     140.893  98.321 132.962  1.00  0.00     0.096 C 
ATOM      9  N   UNL     1     140.901  98.225 134.357  1.00  0.00    -0.303 N 
ATOM     10  C   UNL     1     141.513  97.304 135.198  1.00  0.00     0.060 A 
ENDROOT
BRANCH   1  11
ATOM     11  C   UNL     1     141.719  97.216 137.731  1.00  0.00     0.002 A 
ATOM     12  C   UNL     1     142.568  96.134 140.190  1.00  0.00    -0.051 A 
ATOM     13  C   UNL     1     141.218  96.436 139.977  1.00  0.00     0.004 A 
ATOM     14  C   UNL     1     143.489  96.375 139.163  1.00  0.00     0.004 A 
ATOM     15  C   UNL     1     140.801  96.984 138.761  1.00  0.00     0.011 A 
ATOM     16  C   UNL     1     143.069  96.922 137.947  1.00  0.00     0.011 A 
ATOM     17  C   UNL     1     143.014  95.520 141.484  1.00  0.00     0.044 C 
ENDBRANCH   1  11
BRANCH  10  18
ATOM     18  C   UNL     1     142.262  96.104 134.708  1.00  0.00     0.157 C 
BRANCH  18  19
ATOM     19  C   UNL     1     143.620  96.486 134.119  1.00  0.00     0.228 C 
ATOM     20  O   UNL     1     144.433  97.084 134.831  1.00  0.00    -0.274 OA
ATOM     21  N   UNL     1     143.906  96.154 132.802  1.00  0.00    -0.348 N 
ATOM     22  C   UNL     1     143.020  95.420 131.912  1.00  0.00     0.146 C 
ATOM     23  C   UNL     1     145.135  96.649 132.203  1.00  0.00     0.146 C 
ENDBRANCH  18  19
ENDBRANCH  10  18
TORSDOF 3
ENDMDL
MODEL 5
REMARK VINA RESULT:    -7.046      2.608      4.892
REMARK INTER + INTRA:          -9.022
REMARK INTER:                  -8.410
REMARK INTRA:                  -0.612
REMARK UNBOUND:                -0.741
REMARK SMILES Cc1ccc(-c2nc3ccc(C)cn3c2CC(=O)N(C)C)cc1
REMARK SMILES IDX 6 1 7 2 8 3 9 4 10 5 11 6 12 7 13 8 14 9 15 10 5 11 2 12
REMARK SMILES IDX 3 13 23 14 4 15 22 16 1 17 16 18 17 19 18 20 19 21 20 22
REMARK SMILES IDX 21 23
REMARK H PARENT
ROOT
ATOM      1  C   UNL     1     141.249  98.038 136.278  1.00  0.00     0.093 A 
ATOM      2  N   UNL     1     140.231  98.959 136.259  1.00  0.00    -0.228 NA
ATOM      3  C   UNL     1     140.120  99.332 135.005  1.00  0.00     0.137 A 
ATOM      4  C   UNL     1     139.257 100.285 134.394  1.00  0.00     0.048 C 
ATOM      5  C   UNL     1     139.354 100.527 133.073  1.00  0.00     0.009 C 
ATOM      6  C   UNL     1     140.329  99.833 132.237  1.00  0.00    -0.034 C 
ATOM      7  C   UNL     1     140.373 100.171 130.781  1.00  0.00     0.046 C 
ATOM      8  C   UNL     1     141.135  98.923 132.817  1.00  0.00     0.096 C 
ATOM      9  N   UNL     1     141.026  98.664 134.186  1.00  0.00    -0.303 N 
ATOM     10  C   UNL     1     141.717  97.775 134.999  1.00  0.00     0.060 A 
ENDROOT
BRANCH   1  11
ATOM     11  C   UNL     1     141.687  97.422 137.517  1.00  0.00     0.002 A 
ATOM     12  C   UNL     1     142.589  96.218 139.898  1.00  0.00    -0.051 A 
ATOM     13  C   UNL     1     143.493  96.535 138.878  1.00  0.00     0.004 A 
ATOM     14  C   UNL     1     141.232  96.511 139.720  1.00  0.00     0.004 A 
ATOM     15  C   UNL     1     143.042  97.121 137.692  1.00  0.00     0.011 A 
ATOM     16  C   UNL     1     140.783  97.098 138.534  1.00  0.00     0.011 A 
ATOM     17  C   UNL     1     143.075  95.614 141.183  1.00  0.00     0.044 C 
ENDBRANCH   1  11
BRANCH  10  18
ATOM     18  C   UNL     1     142.726  96.795 134.484  1.00  0.00     0.157 C 
BRANCH  18  19
ATOM     19  C   UNL     1     142.083  95.453 134.133  1.00  0.00     0.228 C 
ATOM     20  O   UNL     1     141.561  94.788 135.034  1.00  0.00    -0.274 OA
ATOM     21  N   UNL     1     142.102  95.014 132.817  1.00  0.00    -0.348 N 
ATOM     22  C   UNL     1     142.662  95.753 131.696  1.00  0.00     0.146 C 
ATOM     23  C   UNL     1     141.624  93.674 132.515  1.00  0.00     0.146 C 
ENDBRANCH  18  19
ENDBRANCH  10  18
TORSDOF 3
ENDMDL
MODEL 6
REMARK VINA RESULT:    -6.880      2.173      6.449
REMARK INTER + INTRA:          -8.827
REMARK INTER:                  -7.764
REMARK INTRA:                  -1.063
REMARK UNBOUND:                -0.741
REMARK SMILES Cc1ccc(-c2nc3ccc(C)cn3c2CC(=O)N(C)C)cc1
REMARK SMILES IDX 6 1 7 2 8 3 9 4 10 5 11 6 12 7 13 8 14 9 15 10 5 11 2 12
REMARK SMILES IDX 3 13 23 14 4 15 22 16 1 17 16 18 17 19 18 20 19 21 20 22
REMARK SMILES IDX 21 23
REMARK H PARENT
ROOT
ATOM      1  C   UNL     1     141.225  97.017 136.398  1.00  0.00     0.093 A 
ATOM      2  N   UNL     1     140.850  97.554 137.605  1.00  0.00    -0.228 NA
ATOM      3  C   UNL     1     141.368  96.764 138.516  1.00  0.00     0.137 A 
ATOM      4  C   UNL     1     141.285  96.805 139.936  1.00  0.00     0.048 C 
ATOM      5  C   UNL     1     141.880  95.848 140.672  1.00  0.00     0.009 C 
ATOM      6  C   UNL     1     142.619  94.753 140.050  1.00  0.00    -0.034 C 
ATOM      7  C   UNL     1     143.241  93.727 140.943  1.00  0.00     0.046 C 
ATOM      8  C   UNL     1     142.706  94.723 138.706  1.00  0.00     0.096 C 
ATOM      9  N   UNL     1     142.097  95.725 137.944  1.00  0.00    -0.303 N 
ATOM     10  C   UNL     1     142.061  95.923 136.569  1.00  0.00     0.060 A 
ENDROOT
BRANCH   1  11
ATOM     11  C   UNL     1     140.801  97.609 135.144  1.00  0.00     0.002 A 
ATOM     12  C   UNL     1     140.016  98.802 132.715  1.00  0.00    -0.051 A 
ATOM     13  C   UNL     1     141.147  99.263 133.399  1.00  0.00     0.004 A 
ATOM     14  C   UNL     1     139.282  97.738 133.254  1.00  0.00     0.004 A 
ATOM     15  C   UNL     1     141.528  98.678 134.609  1.00  0.00     0.011 A 
ATOM     16  C   UNL     1     139.665  97.154 134.465  1.00  0.00     0.011 A 
ATOM     17  C   UNL     1     139.621  99.410 131.402  1.00  0.00     0.044 C 
ENDBRANCH   1  11
BRANCH  10  18
ATOM     18  C   UNL     1     142.806  95.070 135.590  1.00  0.00     0.157 C 
BRANCH  18  19
ATOM     19  C   UNL     1     143.958  95.833 134.936  1.00  0.00     0.228 C 
ATOM     20  O   UNL     1     144.917  96.179 135.633  1.00  0.00    -0.274 OA
ATOM     21  N   UNL     1     143.899  96.121 133.580  1.00  0.00    -0.348 N 
ATOM     22  C   UNL     1     142.825  95.718 132.684  1.00  0.00     0.146 C 
ATOM     23  C   UNL     1     144.921  96.974 132.996  1.00  0.00     0.146 C 
ENDBRANCH  18  19
ENDBRANCH  10  18
TORSDOF 3
ENDMDL
MODEL 7
REMARK VINA RESULT:    -6.201      2.551      6.943
REMARK INTER + INTRA:          -8.029
REMARK INTER:                  -7.038
REMARK INTRA:                  -0.991
REMARK UNBOUND:                -0.741
REMARK SMILES Cc1ccc(-c2nc3ccc(C)cn3c2CC(=O)N(C)C)cc1
REMARK SMILES IDX 6 1 7 2 8 3 9 4 10 5 11 6 12 7 13 8 14 9 15 10 5 11 2 12
REMARK SMILES IDX 3 13 23 14 4 15 22 16 1 17 16 18 17 19 18 20 19 21 20 22
REMARK SMILES IDX 21 23
REMARK H PARENT
ROOT
ATOM      1  C   UNL     1     141.711  96.790 133.428  1.00  0.00     0.093 A 
ATOM      2  N   UNL     1     141.870  97.666 132.382  1.00  0.00    -0.228 NA
ATOM      3  C   UNL     1     141.024  98.643 132.613  1.00  0.00     0.137 A 
ATOM      4  C   UNL     1     140.725  99.809 131.855  1.00  0.00     0.048 C 
ATOM      5  C   UNL     1     139.777 100.663 132.283  1.00  0.00     0.009 C 
ATOM      6  C   UNL     1     139.035 100.427 133.518  1.00  0.00    -0.034 C 
ATOM      7  C   UNL     1     137.992 101.423 133.912  1.00  0.00     0.046 C 
ATOM      8  C   UNL     1     139.328  99.328 134.239  1.00  0.00     0.096 C 
ATOM      9  N   UNL     1     140.322  98.448 133.799  1.00  0.00    -0.303 N 
ATOM     10  C   UNL     1     140.812  97.278 134.366  1.00  0.00     0.060 A 
ENDROOT
BRANCH   1  11
ATOM     11  C   UNL     1     142.467  95.553 133.499  1.00  0.00     0.002 A 
ATOM     12  C   UNL     1     143.981  93.182 133.643  1.00  0.00    -0.051 A 
ATOM     13  C   UNL     1     144.562  94.415 133.963  1.00  0.00     0.004 A 
ATOM     14  C   UNL     1     142.637  93.144 133.253  1.00  0.00     0.004 A 
ATOM     15  C   UNL     1     143.812  95.591 133.879  1.00  0.00     0.011 A 
ATOM     16  C   UNL     1     141.889  94.322 133.171  1.00  0.00     0.011 A 
ATOM     17  C   UNL     1     144.776  91.915 133.759  1.00  0.00     0.044 C 
ENDBRANCH   1  11
BRANCH  10  18
ATOM     18  C   UNL     1     140.382  96.762 135.703  1.00  0.00     0.157 C 
BRANCH  18  19
ATOM     19  C   UNL     1     141.331  97.210 136.815  1.00  0.00     0.228 C 
ATOM     20  O   UNL     1     141.310  98.391 137.177  1.00  0.00    -0.274 OA
ATOM     21  N   UNL     1     142.191  96.284 137.388  1.00  0.00    -0.348 N 
ATOM     22  C   UNL     1     142.251  94.872 137.044  1.00  0.00     0.146 C 
ATOM     23  C   UNL     1     143.192  96.746 138.336  1.00  0.00     0.146 C 
ENDBRANCH  18  19
ENDBRANCH  10  18
TORSDOF 3
ENDMDL
MODEL 8
REMARK VINA RESULT:    -6.128      3.332      4.298
REMARK INTER + INTRA:          -7.944
REMARK INTER:                  -6.927
REMARK INTRA:                  -1.017
REMARK UNBOUND:                -0.741
REMARK SMILES Cc1ccc(-c2nc3ccc(C)cn3c2CC(=O)N(C)C)cc1
REMARK SMILES IDX 6 1 7 2 8 3 9 4 10 5 11 6 12 7 13 8 14 9 15 10 5 11 2 12
REMARK SMILES IDX 3 13 23 14 4 15 22 16 1 17 16 18 17 19 18 20 19 21 20 22
REMARK SMILES IDX 21 23
REMARK H PARENT
ROOT
ATOM      1  C   UNL     1     143.833  96.016 134.744  1.00  0.00     0.093 A 
ATOM      2  N   UNL     1     144.505  94.867 135.081  1.00  0.00    -0.228 NA
ATOM      3  C   UNL     1     145.361  94.664 134.106  1.00  0.00     0.137 A 
ATOM      4  C   UNL     1     146.297  93.612 133.898  1.00  0.00     0.048 C 
ATOM      5  C   UNL     1     147.055  93.598 132.785  1.00  0.00     0.009 C 
ATOM      6  C   UNL     1     146.945  94.643 131.772  1.00  0.00    -0.034 C 
ATOM      7  C   UNL     1     147.819  94.543 130.562  1.00  0.00     0.046 C 
ATOM      8  C   UNL     1     146.066  95.643 131.977  1.00  0.00     0.096 C 
ATOM      9  N   UNL     1     145.288  95.662 133.139  1.00  0.00    -0.303 N 
ATOM     10  C   UNL     1     144.343  96.579 133.581  1.00  0.00     0.060 A 
ENDROOT
BRANCH   1  11
ATOM     11  C   UNL     1     142.770  96.542 135.579  1.00  0.00     0.002 A 
ATOM     12  C   UNL     1     140.745  97.585 137.237  1.00  0.00    -0.051 A 
ATOM     13  C   UNL     1     142.081  97.948 137.436  1.00  0.00     0.004 A 
ATOM     14  C   UNL     1     140.428  96.697 136.201  1.00  0.00     0.004 A 
ATOM     15  C   UNL     1     143.086  97.421 136.621  1.00  0.00     0.011 A 
ATOM     16  C   UNL     1     141.435  96.171 135.386  1.00  0.00     0.011 A 
ATOM     17  C   UNL     1     139.662  98.171 138.093  1.00  0.00     0.044 C 
ENDBRANCH   1  11
BRANCH  10  18
ATOM     18  C   UNL     1     144.032  97.858 132.868  1.00  0.00     0.157 C 
BRANCH  18  19
ATOM     19  C   UNL     1     142.798  97.722 131.977  1.00  0.00     0.228 C 
ATOM     20  O   UNL     1     142.862  97.007 130.972  1.00  0.00    -0.274 OA
ATOM     21  N   UNL     1     141.637  98.405 132.315  1.00  0.00    -0.348 N 
ATOM     22  C   UNL     1     141.468  99.235 133.497  1.00  0.00     0.146 C 
ATOM     23  C   UNL     1     140.517  98.392 131.387  1.00  0.00     0.146 C 
ENDBRANCH  18  19
ENDBRANCH  10  18
TORSDOF 3
ENDMDL
MODEL 9
REMARK VINA RESULT:    -5.895      2.712      7.230
REMARK INTER + INTRA:          -7.669
REMARK INTER:                  -6.966
REMARK INTRA:                  -0.703
REMARK UNBOUND:                -0.741
REMARK SMILES Cc1ccc(-c2nc3ccc(C)cn3c2CC(=O)N(C)C)cc1
REMARK SMILES IDX 6 1 7 2 8 3 9 4 10 5 11 6 12 7 13 8 14 9 15 10 5 11 2 12
REMARK SMILES IDX 3 13 23 14 4 15 22 16 1 17 16 18 17 19 18 20 19 21 20 22
REMARK SMILES IDX 21 23
REMARK H PARENT
ROOT
ATOM      1  C   UNL     1     140.566  96.925 134.601  1.00  0.00     0.093 A 
ATOM      2  N   UNL     1     140.051  97.139 135.856  1.00  0.00    -0.228 NA
ATOM      3  C   UNL     1     141.056  96.966 136.681  1.00  0.00     0.137 A 
ATOM      4  C   UNL     1     141.111  97.026 138.102  1.00  0.00     0.048 C 
ATOM      5  C   UNL     1     142.269  96.771 138.741  1.00  0.00     0.009 C 
ATOM      6  C   UNL     1     143.487  96.431 138.011  1.00  0.00    -0.034 C 
ATOM      7  C   UNL     1     144.725  96.153 138.801  1.00  0.00     0.046 C 
ATOM      8  C   UNL     1     143.434  96.386 136.665  1.00  0.00     0.096 C 
ATOM      9  N   UNL     1     142.234  96.662 136.003  1.00  0.00    -0.303 N 
ATOM     10  C   UNL     1     141.935  96.700 134.647  1.00  0.00     0.060 A 
ENDROOT
BRANCH   1  11
ATOM     11  C   UNL     1     139.729  96.997 133.418  1.00  0.00     0.002 A 
ATOM     12  C   UNL     1     138.115  97.192 131.117  1.00  0.00    -0.051 A 
ATOM     13  C   UNL     1     138.947  98.252 131.491  1.00  0.00     0.004 A 
ATOM     14  C   UNL     1     138.098  96.032 131.901  1.00  0.00     0.004 A 
ATOM     15  C   UNL     1     139.738  98.159 132.640  1.00  0.00     0.011 A 
ATOM     16  C   UNL     1     138.890  95.939 133.049  1.00  0.00     0.011 A 
ATOM     17  C   UNL     1     137.287  97.279 129.870  1.00  0.00     0.044 C 
ENDBRANCH   1  11
BRANCH  10  18
ATOM     18  C   UNL     1     142.957  96.519 133.568  1.00  0.00     0.157 C 
BRANCH  18  19
ATOM     19  C   UNL     1     142.809  95.168 132.870  1.00  0.00     0.228 C 
ATOM     20  O   UNL     1     142.011  95.064 131.933  1.00  0.00    -0.274 OA
ATOM     21  N   UNL     1     143.571  94.092 133.303  1.00  0.00    -0.348 N 
ATOM     22  C   UNL     1     144.557  94.141 134.371  1.00  0.00     0.146 C 
ATOM     23  C   UNL     1     143.319  92.777 132.736  1.00  0.00     0.146 C 
ENDBRANCH  18  19
ENDBRANCH  10  18
TORSDOF 3
ENDMDL
