MODEL 1
REMARK VINA RESULT:    -8.499      0.000      0.000
REMARK INTER + INTRA:          -9.581
REMARK INTER:                  -9.244
REMARK INTRA:                  -0.336
REMARK UNBOUND:                -0.336
REMARK SMILES O=C1Nc2ccc(Cl)cc2C(c2ccccc2Cl)=NC1O
REMARK SMILES IDX 1 1 2 2 3 3 4 4 5 5 6 6 7 7 8 8 9 9 10 10 11 11 19 12 20 13
REMARK SMILES IDX 21 15 12 17 13 18 17 19 14 20 16 21 15 22 18 23
REMARK H PARENT 3 14 21 16
ROOT
ATOM      1  O   UNL     1     115.619 155.727 113.992  1.00  0.00    -0.269 OA
ATOM      2  C   UNL     1     116.353 156.505 113.377  1.00  0.00     0.276 C 
ATOM      3  N   UNL     1     115.897 157.770 113.104  1.00  0.00    -0.321 N 
ATOM      4  C   UNL     1     116.570 158.791 112.418  1.00  0.00     0.050 A 
ATOM      5  C   UNL     1     116.163 160.101 112.721  1.00  0.00     0.028 A 
ATOM      6  C   UNL     1     116.801 161.199 112.143  1.00  0.00     0.023 A 
ATOM      7  C   UNL     1     117.843 160.996 111.246  1.00  0.00     0.041 A 
ATOM      8  Cl  UNL     1     118.636 162.347 110.538  1.00  0.00    -0.084 Cl
ATOM      9  C   UNL     1     118.231 159.705 110.898  1.00  0.00     0.033 A 
ATOM     10  C   UNL     1     117.583 158.593 111.464  1.00  0.00     0.026 A 
ATOM     11  C   UNL     1     117.890 157.241 110.906  1.00  0.00     0.079 C 
ATOM     12  N   UNL     1     117.955 156.136 111.562  1.00  0.00    -0.243 NA
ATOM     13  C   UNL     1     117.813 156.154 113.010  1.00  0.00     0.323 C 
ATOM     14  H   UNL     1     115.015 157.976 113.555  1.00  0.00     0.170 HD
ENDROOT
BRANCH  13  15
ATOM     15  O   UNL     1     118.750 156.961 113.711  1.00  0.00    -0.364 OA
ATOM     16  H   UNL     1     119.588 156.867 113.229  1.00  0.00     0.213 HD
ENDBRANCH  13  15
BRANCH  11  17
ATOM     17  C   UNL     1     118.074 157.138 109.434  1.00  0.00     0.019 A 
ATOM     18  C   UNL     1     119.341 157.435 108.911  1.00  0.00     0.012 A 
ATOM     19  C   UNL     1     117.024 156.781 108.582  1.00  0.00     0.050 A 
ATOM     20  C   UNL     1     119.556 157.365 107.536  1.00  0.00     0.001 A 
ATOM     21  C   UNL     1     117.249 156.713 107.204  1.00  0.00     0.021 A 
ATOM     22  C   UNL     1     118.512 157.005 106.683  1.00  0.00     0.002 A 
ATOM     23  Cl  UNL     1     115.456 156.358 109.167  1.00  0.00    -0.084 Cl
ENDBRANCH  11  17
TORSDOF 2
ENDMDL
MODEL 2
REMARK VINA RESULT:    -8.306      1.530      1.996
REMARK INTER + INTRA:          -9.371
REMARK INTER:                  -9.229
REMARK INTRA:                  -0.142
REMARK UNBOUND:                -0.336
REMARK SMILES O=C1Nc2ccc(Cl)cc2C(c2ccccc2Cl)=NC1O
REMARK SMILES IDX 1 1 2 2 3 3 4 4 5 5 6 6 7 7 8 8 9 9 10 10 11 11 19 12 20 13
REMARK SMILES IDX 21 15 12 17 13 18 17 19 14 20 16 21 15 22 18 23
REMARK H PARENT 3 14 21 16
ROOT
ATOM      1  O   UNL     1     115.797 154.859 115.008  1.00  0.00    -0.269 OA
ATOM      2  C   UNL     1     116.291 155.784 114.357  1.00  0.00     0.276 C 
ATOM      3  N   UNL     1     115.586 156.954 114.228  1.00  0.00    -0.321 N 
ATOM      4  C   UNL     1     115.968 158.109 113.530  1.00  0.00     0.050 A 
ATOM      5  C   UNL     1     115.382 159.308 113.968  1.00  0.00     0.028 A 
ATOM      6  C   UNL     1     115.732 160.528 113.387  1.00  0.00     0.023 A 
ATOM      7  C   UNL     1     116.659 160.557 112.353  1.00  0.00     0.041 A 
ATOM      8  Cl  UNL     1     117.098 162.059 111.640  1.00  0.00    -0.084 Cl
ATOM      9  C   UNL     1     117.217 159.374 111.874  1.00  0.00     0.033 A 
ATOM     10  C   UNL     1     116.859 158.140 112.444  1.00  0.00     0.026 A 
ATOM     11  C   UNL     1     117.320 156.892 111.764  1.00  0.00     0.079 C 
ATOM     12  N   UNL     1     117.668 155.791 112.332  1.00  0.00    -0.243 NA
ATOM     13  C   UNL     1     117.725 155.722 113.785  1.00  0.00     0.323 C 
ATOM     14  H   UNL     1     114.752 156.976 114.799  1.00  0.00     0.170 HD
ENDROOT
BRANCH  13  15
ATOM     15  O   UNL     1     118.593 156.657 114.412  1.00  0.00    -0.364 OA
ATOM     16  H   UNL     1     118.175 156.872 115.262  1.00  0.00     0.213 HD
ENDBRANCH  13  15
BRANCH  11  17
ATOM     17  C   UNL     1     117.316 156.885 110.277  1.00  0.00     0.019 A 
ATOM     18  C   UNL     1     116.231 156.279 109.629  1.00  0.00     0.012 A 
ATOM     19  C   UNL     1     118.363 157.440 109.533  1.00  0.00     0.050 A 
ATOM     20  C   UNL     1     116.191 156.236 108.236  1.00  0.00     0.001 A 
ATOM     21  C   UNL     1     118.314 157.393 108.137  1.00  0.00     0.021 A 
ATOM     22  C   UNL     1     117.231 156.792 107.491  1.00  0.00     0.002 A 
ATOM     23  Cl  UNL     1     119.702 158.242 110.270  1.00  0.00    -0.084 Cl
ENDBRANCH  11  17
TORSDOF 2
ENDMDL
MODEL 3
REMARK VINA RESULT:    -8.001      1.795      2.272
REMARK INTER + INTRA:          -9.039
REMARK INTER:                  -8.475
REMARK INTRA:                  -0.564
REMARK UNBOUND:                -0.336
REMARK SMILES O=C1Nc2ccc(Cl)cc2C(c2ccccc2Cl)=NC1O
REMARK SMILES IDX 1 1 2 2 3 3 4 4 5 5 6 6 7 7 8 8 9 9 10 10 11 11 19 12 20 13
REMARK SMILES IDX 21 15 12 17 13 18 17 19 14 20 16 21 15 22 18 23
REMARK H PARENT 3 14 21 16
ROOT
ATOM      1  O   UNL     1     115.561 158.673 113.717  1.00  0.00    -0.269 OA
ATOM      2  C   UNL     1     116.498 158.479 112.937  1.00  0.00     0.276 C 
ATOM      3  N   UNL     1     116.928 159.516 112.149  1.00  0.00    -0.321 N 
ATOM      4  C   UNL     1     117.964 159.499 111.203  1.00  0.00     0.050 A 
ATOM      5  C   UNL     1     118.563 160.739 110.931  1.00  0.00     0.028 A 
ATOM      6  C   UNL     1     119.643 160.833 110.051  1.00  0.00     0.023 A 
ATOM      7  C   UNL     1     120.122 159.689 109.426  1.00  0.00     0.041 A 
ATOM      8  Cl  UNL     1     121.456 159.801 108.346  1.00  0.00    -0.084 Cl
ATOM      9  C   UNL     1     119.512 158.457 109.647  1.00  0.00     0.033 A 
ATOM     10  C   UNL     1     118.415 158.356 110.521  1.00  0.00     0.026 A 
ATOM     11  C   UNL     1     117.669 157.062 110.564  1.00  0.00     0.079 C 
ATOM     12  N   UNL     1     117.121 156.526 111.598  1.00  0.00    -0.243 NA
ATOM     13  C   UNL     1     117.288 157.151 112.902  1.00  0.00     0.323 C 
ATOM     14  H   UNL     1     116.488 160.397 112.383  1.00  0.00     0.170 HD
ENDROOT
BRANCH  13  15
ATOM     15  O   UNL     1     118.630 157.314 113.339  1.00  0.00    -0.364 OA
ATOM     16  H   UNL     1     118.870 156.476 113.767  1.00  0.00     0.213 HD
ENDBRANCH  13  15
BRANCH  11  17
ATOM     17  C   UNL     1     117.474 156.345 109.277  1.00  0.00     0.019 A 
ATOM     18  C   UNL     1     118.364 155.308 108.964  1.00  0.00     0.012 A 
ATOM     19  C   UNL     1     116.455 156.694 108.383  1.00  0.00     0.050 A 
ATOM     20  C   UNL     1     118.229 154.617 107.761  1.00  0.00     0.001 A 
ATOM     21  C   UNL     1     116.327 155.995 107.180  1.00  0.00     0.021 A 
ATOM     22  C   UNL     1     117.212 154.960 106.871  1.00  0.00     0.002 A 
ATOM     23  Cl  UNL     1     115.298 157.928 108.731  1.00  0.00    -0.084 Cl
ENDBRANCH  11  17
TORSDOF 2
ENDMDL
MODEL 4
REMARK VINA RESULT:    -7.640      3.503      6.470
REMARK INTER + INTRA:          -8.646
REMARK INTER:                  -9.134
REMARK INTRA:                   0.488
REMARK UNBOUND:                -0.336
REMARK SMILES O=C1Nc2ccc(Cl)cc2C(c2ccccc2Cl)=NC1O
REMARK SMILES IDX 1 1 2 2 3 3 4 4 5 5 6 6 7 7 8 8 9 9 10 10 11 11 19 12 20 13
REMARK SMILES IDX 21 15 12 17 13 18 17 19 14 20 16 21 15 22 18 23
REMARK H PARENT 3 14 21 16
ROOT
ATOM      1  O   UNL     1     121.592 161.756 106.747  1.00  0.00    -0.269 OA
ATOM      2  C   UNL     1     121.196 160.665 107.166  1.00  0.00     0.276 C 
ATOM      3  N   UNL     1     120.221 160.000 106.465  1.00  0.00    -0.321 N 
ATOM      4  C   UNL     1     119.638 158.764 106.775  1.00  0.00     0.050 A 
ATOM      5  C   UNL     1     119.096 158.055 105.691  1.00  0.00     0.028 A 
ATOM      6  C   UNL     1     118.542 156.786 105.872  1.00  0.00     0.023 A 
ATOM      7  C   UNL     1     118.512 156.224 107.142  1.00  0.00     0.041 A 
ATOM      8  Cl  UNL     1     117.836 154.658 107.367  1.00  0.00    -0.084 Cl
ATOM      9  C   UNL     1     119.002 156.930 108.237  1.00  0.00     0.033 A 
ATOM     10  C   UNL     1     119.549 158.214 108.066  1.00  0.00     0.026 A 
ATOM     11  C   UNL     1     119.867 159.011 109.289  1.00  0.00     0.079 C 
ATOM     12  N   UNL     1     120.852 159.825 109.440  1.00  0.00    -0.243 NA
ATOM     13  C   UNL     1     121.840 159.958 108.380  1.00  0.00     0.323 C 
ATOM     14  H   UNL     1     120.004 160.440 105.580  1.00  0.00     0.170 HD
ENDROOT
BRANCH  13  15
ATOM     15  O   UNL     1     122.511 158.761 108.009  1.00  0.00    -0.364 OA
ATOM     16  H   UNL     1     122.180 158.539 107.124  1.00  0.00     0.213 HD
ENDBRANCH  13  15
BRANCH  11  17
ATOM     17  C   UNL     1     118.920 158.914 110.431  1.00  0.00     0.019 A 
ATOM     18  C   UNL     1     118.631 157.638 110.934  1.00  0.00     0.012 A 
ATOM     19  C   UNL     1     118.309 160.045 110.982  1.00  0.00     0.050 A 
ATOM     20  C   UNL     1     117.737 157.497 111.995  1.00  0.00     0.001 A 
ATOM     21  C   UNL     1     117.415 159.894 112.045  1.00  0.00     0.021 A 
ATOM     22  C   UNL     1     117.130 158.623 112.549  1.00  0.00     0.002 A 
ATOM     23  Cl  UNL     1     118.658 161.646 110.439  1.00  0.00    -0.084 Cl
ENDBRANCH  11  17
TORSDOF 2
ENDMDL
MODEL 5
REMARK VINA RESULT:    -7.568      3.229      5.510
REMARK INTER + INTRA:          -8.568
REMARK INTER:                  -9.077
REMARK INTRA:                   0.509
REMARK UNBOUND:                -0.336
REMARK SMILES O=C1Nc2ccc(Cl)cc2C(c2ccccc2Cl)=NC1O
REMARK SMILES IDX 1 1 2 2 3 3 4 4 5 5 6 6 7 7 8 8 9 9 10 10 11 11 19 12 20 13
REMARK SMILES IDX 21 15 12 17 13 18 17 19 14 20 16 21 15 22 18 23
REMARK H PARENT 3 14 21 16
ROOT
ATOM      1  O   UNL     1     118.303 157.198 112.147  1.00  0.00    -0.269 OA
ATOM      2  C   UNL     1     118.426 157.604 110.988  1.00  0.00     0.276 C 
ATOM      3  N   UNL     1     118.774 156.712 110.006  1.00  0.00    -0.321 N 
ATOM      4  C   UNL     1     118.967 156.974 108.642  1.00  0.00     0.050 A 
ATOM      5  C   UNL     1     118.784 155.882 107.778  1.00  0.00     0.028 A 
ATOM      6  C   UNL     1     118.892 156.039 106.395  1.00  0.00     0.023 A 
ATOM      7  C   UNL     1     119.199 157.286 105.866  1.00  0.00     0.041 A 
ATOM      8  Cl  UNL     1     119.326 157.484 104.163  1.00  0.00    -0.084 Cl
ATOM      9  C   UNL     1     119.429 158.371 106.708  1.00  0.00     0.033 A 
ATOM     10  C   UNL     1     119.337 158.219 108.103  1.00  0.00     0.026 A 
ATOM     11  C   UNL     1     119.794 159.350 108.965  1.00  0.00     0.079 C 
ATOM     12  N   UNL     1     119.283 159.714 110.089  1.00  0.00    -0.243 NA
ATOM     13  C   UNL     1     118.082 159.054 110.576  1.00  0.00     0.323 C 
ATOM     14  H   UNL     1     118.782 155.754 110.330  1.00  0.00     0.170 HD
ENDROOT
BRANCH  13  15
ATOM     15  O   UNL     1     116.953 159.113 109.714  1.00  0.00    -0.364 OA
ATOM     16  H   UNL     1     116.929 160.023 109.376  1.00  0.00     0.213 HD
ENDBRANCH  13  15
BRANCH  11  17
ATOM     17  C   UNL     1     121.004 160.095 108.526  1.00  0.00     0.019 A 
ATOM     18  C   UNL     1     121.971 159.396 107.790  1.00  0.00     0.012 A 
ATOM     19  C   UNL     1     121.198 161.443 108.848  1.00  0.00     0.050 A 
ATOM     20  C   UNL     1     123.128 160.050 107.369  1.00  0.00     0.001 A 
ATOM     21  C   UNL     1     122.361 162.090 108.422  1.00  0.00     0.021 A 
ATOM     22  C   UNL     1     123.323 161.395 107.685  1.00  0.00     0.002 A 
ATOM     23  Cl  UNL     1     120.025 162.370 109.711  1.00  0.00    -0.084 Cl
ENDBRANCH  11  17
TORSDOF 2
ENDMDL
MODEL 6
REMARK VINA RESULT:    -7.507      2.661      4.987
REMARK INTER + INTRA:          -8.501
REMARK INTER:                  -8.111
REMARK INTRA:                  -0.390
REMARK UNBOUND:                -0.336
REMARK SMILES O=C1Nc2ccc(Cl)cc2C(c2ccccc2Cl)=NC1O
REMARK SMILES IDX 1 1 2 2 3 3 4 4 5 5 6 6 7 7 8 8 9 9 10 10 11 11 19 12 20 13
REMARK SMILES IDX 21 15 12 17 13 18 17 19 14 20 16 21 15 22 18 23
REMARK H PARENT 3 14 21 16
ROOT
ATOM      1  O   UNL     1     119.076 155.670 108.080  1.00  0.00    -0.269 OA
ATOM      2  C   UNL     1     118.342 156.329 108.822  1.00  0.00     0.276 C 
ATOM      3  N   UNL     1     118.854 157.438 109.446  1.00  0.00    -0.321 N 
ATOM      4  C   UNL     1     118.191 158.308 110.323  1.00  0.00     0.050 A 
ATOM      5  C   UNL     1     118.710 159.611 110.400  1.00  0.00     0.028 A 
ATOM      6  C   UNL     1     118.096 160.579 111.196  1.00  0.00     0.023 A 
ATOM      7  C   UNL     1     116.966 160.248 111.933  1.00  0.00     0.041 A 
ATOM      8  Cl  UNL     1     116.203 161.440 112.909  1.00  0.00    -0.084 Cl
ATOM      9  C   UNL     1     116.463 158.949 111.906  1.00  0.00     0.033 A 
ATOM     10  C   UNL     1     117.084 157.965 111.119  1.00  0.00     0.026 A 
ATOM     11  C   UNL     1     116.638 156.548 111.284  1.00  0.00     0.079 C 
ATOM     12  N   UNL     1     116.560 155.655 110.361  1.00  0.00    -0.243 NA
ATOM     13  C   UNL     1     116.835 156.026 108.981  1.00  0.00     0.323 C 
ATOM     14  H   UNL     1     119.785 157.673 109.128  1.00  0.00     0.170 HD
ENDROOT
BRANCH  13  15
ATOM     15  O   UNL     1     116.021 157.063 108.448  1.00  0.00    -0.364 OA
ATOM     16  H   UNL     1     115.117 156.707 108.438  1.00  0.00     0.213 HD
ENDBRANCH  13  15
BRANCH  11  17
ATOM     17  C   UNL     1     116.314 156.092 112.662  1.00  0.00     0.019 A 
ATOM     18  C   UNL     1     115.028 155.588 112.898  1.00  0.00     0.012 A 
ATOM     19  C   UNL     1     117.242 156.179 113.706  1.00  0.00     0.050 A 
ATOM     20  C   UNL     1     114.674 155.162 114.177  1.00  0.00     0.001 A 
ATOM     21  C   UNL     1     116.878 155.749 114.985  1.00  0.00     0.021 A 
ATOM     22  C   UNL     1     115.598 155.243 115.219  1.00  0.00     0.002 A 
ATOM     23  Cl  UNL     1     118.855 156.746 113.469  1.00  0.00    -0.084 Cl
ENDBRANCH  11  17
TORSDOF 2
ENDMDL
MODEL 7
REMARK VINA RESULT:    -7.463      4.405      6.368
REMARK INTER + INTRA:          -8.453
REMARK INTER:                  -8.947
REMARK INTRA:                   0.494
REMARK UNBOUND:                -0.336
REMARK SMILES O=C1Nc2ccc(Cl)cc2C(c2ccccc2Cl)=NC1O
REMARK SMILES IDX 1 1 2 2 3 3 4 4 5 5 6 6 7 7 8 8 9 9 10 10 11 11 19 12 20 13
REMARK SMILES IDX 21 15 12 17 13 18 17 19 14 20 16 21 15 22 18 23
REMARK H PARENT 3 14 21 16
ROOT
ATOM      1  O   UNL     1     119.027 157.572 104.233  1.00  0.00    -0.269 OA
ATOM      2  C   UNL     1     119.329 157.670 105.425  1.00  0.00     0.276 C 
ATOM      3  N   UNL     1     118.326 157.736 106.359  1.00  0.00    -0.321 N 
ATOM      4  C   UNL     1     118.460 157.855 107.750  1.00  0.00     0.050 A 
ATOM      5  C   UNL     1     117.382 157.373 108.510  1.00  0.00     0.028 A 
ATOM      6  C   UNL     1     117.429 157.386 109.905  1.00  0.00     0.023 A 
ATOM      7  C   UNL     1     118.549 157.894 110.551  1.00  0.00     0.041 A 
ATOM      8  Cl  UNL     1     118.614 157.904 112.269  1.00  0.00    -0.084 Cl
ATOM      9  C   UNL     1     119.609 158.419 109.815  1.00  0.00     0.033 A 
ATOM     10  C   UNL     1     119.563 158.423 108.410  1.00  0.00     0.026 A 
ATOM     11  C   UNL     1     120.620 159.181 107.675  1.00  0.00     0.079 C 
ATOM     12  N   UNL     1     121.151 158.860 106.547  1.00  0.00    -0.243 NA
ATOM     13  C   UNL     1     120.791 157.597 105.920  1.00  0.00     0.323 C 
ATOM     14  H   UNL     1     117.409 157.576 105.963  1.00  0.00     0.170 HD
ENDROOT
BRANCH  13  15
ATOM     15  O   UNL     1     121.037 156.432 106.696  1.00  0.00    -0.364 OA
ATOM     16  H   UNL     1     120.439 155.752 106.344  1.00  0.00     0.213 HD
ENDBRANCH  13  15
BRANCH  11  17
ATOM     17  C   UNL     1     121.065 160.473 108.261  1.00  0.00     0.019 A 
ATOM     18  C   UNL     1     120.132 161.207 109.007  1.00  0.00     0.012 A 
ATOM     19  C   UNL     1     122.359 160.967 108.065  1.00  0.00     0.050 A 
ATOM     20  C   UNL     1     120.499 162.432 109.563  1.00  0.00     0.001 A 
ATOM     21  C   UNL     1     122.718 162.195 108.627  1.00  0.00     0.021 A 
ATOM     22  C   UNL     1     121.790 162.925 109.373  1.00  0.00     0.002 A 
ATOM     23  Cl  UNL     1     123.566 160.089 107.197  1.00  0.00    -0.084 Cl
ENDBRANCH  11  17
TORSDOF 2
ENDMDL
MODEL 8
REMARK VINA RESULT:    -7.208      4.597      6.171
REMARK INTER + INTRA:          -8.177
REMARK INTER:                  -7.603
REMARK INTRA:                  -0.573
REMARK UNBOUND:                -0.336
REMARK SMILES O=C1Nc2ccc(Cl)cc2C(c2ccccc2Cl)=NC1O
REMARK SMILES IDX 1 1 2 2 3 3 4 4 5 5 6 6 7 7 8 8 9 9 10 10 11 11 19 12 20 13
REMARK SMILES IDX 21 15 12 17 13 18 17 19 14 20 16 21 15 22 18 23
REMARK H PARENT 3 14 21 16
ROOT
ATOM      1  O   UNL     1     115.540 151.832 118.348  1.00  0.00    -0.269 OA
ATOM      2  C   UNL     1     116.013 152.923 118.020  1.00  0.00     0.276 C 
ATOM      3  N   UNL     1     115.342 154.068 118.370  1.00  0.00    -0.321 N 
ATOM      4  C   UNL     1     115.707 155.392 118.090  1.00  0.00     0.050 A 
ATOM      5  C   UNL     1     115.202 156.364 118.968  1.00  0.00     0.028 A 
ATOM      6  C   UNL     1     115.547 157.709 118.822  1.00  0.00     0.023 A 
ATOM      7  C   UNL     1     116.388 158.094 117.786  1.00  0.00     0.041 A 
ATOM      8  Cl  UNL     1     116.821 159.749 117.606  1.00  0.00    -0.084 Cl
ATOM      9  C   UNL     1     116.863 157.152 116.877  1.00  0.00     0.033 A 
ATOM     10  C   UNL     1     116.509 155.798 117.008  1.00  0.00     0.026 A 
ATOM     11  C   UNL     1     116.868 154.866 115.897  1.00  0.00     0.079 C 
ATOM     12  N   UNL     1     117.221 153.634 116.012  1.00  0.00    -0.243 NA
ATOM     13  C   UNL     1     117.393 153.059 117.338  1.00  0.00     0.323 C 
ATOM     14  H   UNL     1     114.558 153.892 118.985  1.00  0.00     0.170 HD
ENDROOT
BRANCH  13  15
ATOM     15  O   UNL     1     118.342 153.710 118.173  1.00  0.00    -0.364 OA
ATOM     16  H   UNL     1     118.131 153.427 119.078  1.00  0.00     0.213 HD
ENDBRANCH  13  15
BRANCH  11  17
ATOM     17  C   UNL     1     116.743 155.382 114.508  1.00  0.00     0.019 A 
ATOM     18  C   UNL     1     117.905 155.848 113.877  1.00  0.00     0.012 A 
ATOM     19  C   UNL     1     115.512 155.430 113.846  1.00  0.00     0.050 A 
ATOM     20  C   UNL     1     117.834 156.354 112.580  1.00  0.00     0.001 A 
ATOM     21  C   UNL     1     115.451 155.939 112.546  1.00  0.00     0.021 A 
ATOM     22  C   UNL     1     116.609 156.400 111.915  1.00  0.00     0.002 A 
ATOM     23  Cl  UNL     1     114.055 154.829 114.550  1.00  0.00    -0.084 Cl
ENDBRANCH  11  17
TORSDOF 2
ENDMDL
MODEL 9
REMARK VINA RESULT:    -7.101      2.996      5.810
REMARK INTER + INTRA:          -8.059
REMARK INTER:                  -7.563
REMARK INTRA:                  -0.497
REMARK UNBOUND:                -0.336
REMARK SMILES O=C1Nc2ccc(Cl)cc2C(c2ccccc2Cl)=NC1O
REMARK SMILES IDX 1 1 2 2 3 3 4 4 5 5 6 6 7 7 8 8 9 9 10 10 11 11 19 12 20 13
REMARK SMILES IDX 21 15 12 17 13 18 17 19 14 20 16 21 15 22 18 23
REMARK H PARENT 3 14 21 16
ROOT
ATOM      1  O   UNL     1     117.802 153.723 113.871  1.00  0.00    -0.269 OA
ATOM      2  C   UNL     1     117.336 154.844 113.650  1.00  0.00     0.276 C 
ATOM      3  N   UNL     1     118.147 155.803 113.098  1.00  0.00    -0.321 N 
ATOM      4  C   UNL     1     117.812 157.126 112.779  1.00  0.00     0.050 A 
ATOM      5  C   UNL     1     118.587 157.727 111.773  1.00  0.00     0.028 A 
ATOM      6  C   UNL     1     118.306 159.021 111.332  1.00  0.00     0.023 A 
ATOM      7  C   UNL     1     117.258 159.730 111.904  1.00  0.00     0.041 A 
ATOM      8  Cl  UNL     1     116.905 161.322 111.358  1.00  0.00    -0.084 Cl
ATOM      9  C   UNL     1     116.507 159.170 112.934  1.00  0.00     0.033 A 
ATOM     10  C   UNL     1     116.792 157.873 113.394  1.00  0.00     0.026 A 
ATOM     11  C   UNL     1     116.103 157.398 114.632  1.00  0.00     0.079 C 
ATOM     12  N   UNL     1     115.709 156.199 114.880  1.00  0.00    -0.243 NA
ATOM     13  C   UNL     1     115.840 155.176 113.854  1.00  0.00     0.323 C 
ATOM     14  H   UNL     1     119.048 155.439 112.814  1.00  0.00     0.170 HD
ENDROOT
BRANCH  13  15
ATOM     15  O   UNL     1     115.179 155.448 112.625  1.00  0.00    -0.364 OA
ATOM     16  H   UNL     1     115.400 156.368 112.407  1.00  0.00     0.213 HD
ENDBRANCH  13  15
BRANCH  11  17
ATOM     17  C   UNL     1     115.906 158.388 115.724  1.00  0.00     0.019 A 
ATOM     18  C   UNL     1     116.927 158.524 116.675  1.00  0.00     0.012 A 
ATOM     19  C   UNL     1     114.738 159.152 115.828  1.00  0.00     0.050 A 
ATOM     20  C   UNL     1     116.781 159.429 117.725  1.00  0.00     0.001 A 
ATOM     21  C   UNL     1     114.601 160.057 116.883  1.00  0.00     0.021 A 
ATOM     22  C   UNL     1     115.619 160.195 117.829  1.00  0.00     0.002 A 
ATOM     23  Cl  UNL     1     113.467 159.066 114.664  1.00  0.00    -0.084 Cl
ENDBRANCH  11  17
TORSDOF 2
ENDMDL
