MODEL 1
REMARK VINA RESULT:    -7.902      0.000      0.000
REMARK INTER + INTRA:          -8.720
REMARK INTER:                  -8.364
REMARK INTRA:                  -0.356
REMARK UNBOUND:                -0.356
REMARK SMILES CN1C(=O)CN=C(c2ccccc2)c2cc(Cl)ccc21
REMARK SMILES IDX 1 1 2 2 3 3 4 4 5 5 6 6 7 7 14 8 15 9 16 10 17 11 18 12
REMARK SMILES IDX 19 13 20 14 8 15 9 16 13 17 10 18 12 19 11 20
REMARK H PARENT
ROOT
ATOM      1  C   UNL     1     141.122  96.478 143.557  1.00  0.00     0.153 C 
ATOM      2  N   UNL     1     141.971  95.909 142.519  1.00  0.00    -0.313 N 
ATOM      3  C   UNL     1     141.612  94.646 142.031  1.00  0.00     0.248 C 
ATOM      4  O   UNL     1     140.590  94.061 142.402  1.00  0.00    -0.272 OA
ATOM      5  C   UNL     1     142.589  93.967 141.082  1.00  0.00     0.243 C 
ATOM      6  N   UNL     1     142.540  94.640 139.788  1.00  0.00    -0.274 NA
ATOM      7  C   UNL     1     143.033  95.830 139.706  1.00  0.00     0.075 C 
ATOM      8  C   UNL     1     143.713  96.533 140.834  1.00  0.00     0.026 A 
ATOM      9  C   UNL     1     144.928  97.182 140.539  1.00  0.00     0.033 A 
ATOM     10  C   UNL     1     145.560  97.955 141.504  1.00  0.00     0.041 A 
ATOM     11  Cl  UNL     1     147.034  98.757 141.131  1.00  0.00    -0.084 Cl
ATOM     12  C   UNL     1     144.999  98.091 142.766  1.00  0.00     0.023 A 
ATOM     13  C   UNL     1     143.807  97.426 143.072  1.00  0.00     0.028 A 
ATOM     14  C   UNL     1     143.153  96.612 142.126  1.00  0.00     0.053 A 
ENDROOT
BRANCH   7  15
ATOM     15  C   UNL     1     142.914  96.531 138.387  1.00  0.00     0.000 A 
ATOM     16  C   UNL     1     143.878  96.291 137.400  1.00  0.00     0.010 A 
ATOM     17  C   UNL     1     141.844  97.392 138.115  1.00  0.00     0.010 A 
ATOM     18  C   UNL     1     143.790  96.931 136.163  1.00  0.00     0.001 A 
ATOM     19  C   UNL     1     141.759  98.030 136.876  1.00  0.00     0.001 A 
ATOM     20  C   UNL     1     142.733  97.804 135.904  1.00  0.00     0.000 A 
ENDBRANCH   7  15
TORSDOF 1
ENDMDL
MODEL 2
REMARK VINA RESULT:    -7.103      2.802      5.379
REMARK INTER + INTRA:          -7.874
REMARK INTER:                  -8.197
REMARK INTRA:                   0.323
REMARK UNBOUND:                -0.356
REMARK SMILES CN1C(=O)CN=C(c2ccccc2)c2cc(Cl)ccc21
REMARK SMILES IDX 1 1 2 2 3 3 4 4 5 5 6 6 7 7 14 8 15 9 16 10 17 11 18 12
REMARK SMILES IDX 19 13 20 14 8 15 9 16 13 17 10 18 12 19 11 20
REMARK H PARENT
ROOT
ATOM      1  C   UNL     1     141.822  97.605 137.337  1.00  0.00     0.153 C 
ATOM      2  N   UNL     1     142.829  96.935 138.149  1.00  0.00    -0.313 N 
ATOM      3  C   UNL     1     143.996  96.520 137.494  1.00  0.00     0.248 C 
ATOM      4  O   UNL     1     144.206  96.764 136.302  1.00  0.00    -0.272 OA
ATOM      5  C   UNL     1     144.970  95.664 138.290  1.00  0.00     0.243 C 
ATOM      6  N   UNL     1     145.648  96.502 139.272  1.00  0.00    -0.274 NA
ATOM      7  C   UNL     1     144.959  96.938 140.273  1.00  0.00     0.075 C 
ATOM      8  C   UNL     1     143.531  96.582 140.525  1.00  0.00     0.026 A 
ATOM      9  C   UNL     1     143.190  96.219 141.843  1.00  0.00     0.033 A 
ATOM     10  C   UNL     1     141.863  95.987 142.183  1.00  0.00     0.041 A 
ATOM     11  Cl  UNL     1     141.452  95.562 143.797  1.00  0.00    -0.084 Cl
ATOM     12  C   UNL     1     140.866  96.110 141.224  1.00  0.00     0.023 A 
ATOM     13  C   UNL     1     141.204  96.444 139.909  1.00  0.00     0.028 A 
ATOM     14  C   UNL     1     142.542  96.658 139.523  1.00  0.00     0.053 A 
ENDROOT
BRANCH   7  15
ATOM     15  C   UNL     1     145.655  97.853 141.236  1.00  0.00     0.000 A 
ATOM     16  C   UNL     1     144.984  98.253 142.397  1.00  0.00     0.010 A 
ATOM     17  C   UNL     1     146.967  98.285 141.009  1.00  0.00     0.010 A 
ATOM     18  C   UNL     1     145.609  99.104 143.310  1.00  0.00     0.001 A 
ATOM     19  C   UNL     1     147.590  99.135 141.924  1.00  0.00     0.001 A 
ATOM     20  C   UNL     1     146.910  99.548 143.070  1.00  0.00     0.000 A 
ENDBRANCH   7  15
TORSDOF 1
ENDMDL
MODEL 3
REMARK VINA RESULT:    -6.672      3.320      6.117
REMARK INTER + INTRA:          -7.418
REMARK INTER:                  -7.418
REMARK INTRA:                  -0.001
REMARK UNBOUND:                -0.356
REMARK SMILES CN1C(=O)CN=C(c2ccccc2)c2cc(Cl)ccc21
REMARK SMILES IDX 1 1 2 2 3 3 4 4 5 5 6 6 7 7 14 8 15 9 16 10 17 11 18 12
REMARK SMILES IDX 19 13 20 14 8 15 9 16 13 17 10 18 12 19 11 20
REMARK H PARENT
ROOT
ATOM      1  C   UNL     1     140.833  94.999 134.065  1.00  0.00     0.153 C 
ATOM      2  N   UNL     1     141.410  95.853 135.096  1.00  0.00    -0.313 N 
ATOM      3  C   UNL     1     140.692  97.006 135.435  1.00  0.00     0.248 C 
ATOM      4  O   UNL     1     139.589  97.265 134.945  1.00  0.00    -0.272 OA
ATOM      5  C   UNL     1     141.370  97.992 136.375  1.00  0.00     0.243 C 
ATOM      6  N   UNL     1     141.386  97.432 137.722  1.00  0.00    -0.274 NA
ATOM      7  C   UNL     1     142.165  96.428 137.950  1.00  0.00     0.075 C 
ATOM      8  C   UNL     1     143.101  95.849 136.941  1.00  0.00     0.026 A 
ATOM      9  C   UNL     1     144.413  95.576 137.374  1.00  0.00     0.033 A 
ATOM     10  C   UNL     1     145.307  94.929 136.531  1.00  0.00     0.041 A 
ATOM     11  Cl  UNL     1     146.901  94.583 137.073  1.00  0.00    -0.084 Cl
ATOM     12  C   UNL     1     144.913  94.552 135.254  1.00  0.00     0.023 A 
ATOM     13  C   UNL     1     143.620  94.846 134.811  1.00  0.00     0.028 A 
ATOM     14  C   UNL     1     142.696  95.525 135.630  1.00  0.00     0.053 A 
ENDROOT
BRANCH   7  15
ATOM     15  C   UNL     1     142.118  95.824 139.321  1.00  0.00     0.000 A 
ATOM     16  C   UNL     1     141.491  96.529 140.354  1.00  0.00     0.010 A 
ATOM     17  C   UNL     1     142.662  94.559 139.576  1.00  0.00     0.010 A 
ATOM     18  C   UNL     1     141.434  95.988 141.639  1.00  0.00     0.001 A 
ATOM     19  C   UNL     1     142.603  94.021 140.863  1.00  0.00     0.001 A 
ATOM     20  C   UNL     1     141.995  94.736 141.893  1.00  0.00     0.000 A 
ENDBRANCH   7  15
TORSDOF 1
ENDMDL
MODEL 4
REMARK VINA RESULT:    -6.381      4.949      7.074
REMARK INTER + INTRA:          -7.110
REMARK INTER:                  -6.693
REMARK INTRA:                  -0.417
REMARK UNBOUND:                -0.356
REMARK SMILES CN1C(=O)CN=C(c2ccccc2)c2cc(Cl)ccc21
REMARK SMILES IDX 1 1 2 2 3 3 4 4 5 5 6 6 7 7 14 8 15 9 16 10 17 11 18 12
REMARK SMILES IDX 19 13 20 14 8 15 9 16 13 17 10 18 12 19 11 20
REMARK H PARENT
ROOT
ATOM      1  C   UNL     1     144.554  95.171 135.463  1.00  0.00     0.153 C 
ATOM      2  N   UNL     1     143.983  96.483 135.188  1.00  0.00    -0.313 N 
ATOM      3  C   UNL     1     144.668  97.292 134.273  1.00  0.00     0.248 C 
ATOM      4  O   UNL     1     145.670  96.901 133.667  1.00  0.00    -0.272 OA
ATOM      5  C   UNL     1     144.182  98.726 134.116  1.00  0.00     0.243 C 
ATOM      6  N   UNL     1     142.918  98.723 133.387  1.00  0.00    -0.274 NA
ATOM      7  C   UNL     1     141.874  98.262 133.989  1.00  0.00     0.075 C 
ATOM      8  C   UNL     1     141.863  97.796 135.408  1.00  0.00     0.026 A 
ATOM      9  C   UNL     1     140.797  98.239 136.214  1.00  0.00     0.033 A 
ATOM     10  C   UNL     1     140.652  97.757 137.509  1.00  0.00     0.041 A 
ATOM     11  Cl  UNL     1     139.338  98.289 138.481  1.00  0.00    -0.084 Cl
ATOM     12  C   UNL     1     141.559  96.837 138.016  1.00  0.00     0.023 A 
ATOM     13  C   UNL     1     142.635  96.416 137.227  1.00  0.00     0.028 A 
ATOM     14  C   UNL     1     142.828  96.905 135.920  1.00  0.00     0.053 A 
ENDROOT
BRANCH   7  15
ATOM     15  C   UNL     1     140.600  98.205 133.202  1.00  0.00     0.000 A 
ATOM     16  C   UNL     1     140.195  96.984 132.652  1.00  0.00     0.010 A 
ATOM     17  C   UNL     1     139.797  99.340 133.036  1.00  0.00     0.010 A 
ATOM     18  C   UNL     1     139.013  96.904 131.915  1.00  0.00     0.001 A 
ATOM     19  C   UNL     1     138.614  99.257 132.298  1.00  0.00     0.001 A 
ATOM     20  C   UNL     1     138.226  98.042 131.735  1.00  0.00     0.000 A 
ENDBRANCH   7  15
TORSDOF 1
ENDMDL
MODEL 5
REMARK VINA RESULT:    -6.367      4.423      7.392
REMARK INTER + INTRA:          -7.096
REMARK INTER:                  -6.805
REMARK INTRA:                  -0.291
REMARK UNBOUND:                -0.356
REMARK SMILES CN1C(=O)CN=C(c2ccccc2)c2cc(Cl)ccc21
REMARK SMILES IDX 1 1 2 2 3 3 4 4 5 5 6 6 7 7 14 8 15 9 16 10 17 11 18 12
REMARK SMILES IDX 19 13 20 14 8 15 9 16 13 17 10 18 12 19 11 20
REMARK H PARENT
ROOT
ATOM      1  C   UNL     1     138.555  96.474 133.607  1.00  0.00     0.153 C 
ATOM      2  N   UNL     1     139.904  96.906 133.951  1.00  0.00    -0.313 N 
ATOM      3  C   UNL     1     140.109  98.284 134.089  1.00  0.00     0.248 C 
ATOM      4  O   UNL     1     139.189  99.102 133.995  1.00  0.00    -0.272 OA
ATOM      5  C   UNL     1     141.545  98.756 134.269  1.00  0.00     0.243 C 
ATOM      6  N   UNL     1     141.994  98.409 135.613  1.00  0.00    -0.274 NA
ATOM      7  C   UNL     1     142.197  97.163 135.880  1.00  0.00     0.075 C 
ATOM      8  C   UNL     1     142.069  96.061 134.880  1.00  0.00     0.026 A 
ATOM      9  C   UNL     1     143.102  95.104 134.852  1.00  0.00     0.033 A 
ATOM     10  C   UNL     1     142.997  93.987 134.034  1.00  0.00     0.041 A 
ATOM     11  Cl  UNL     1     144.254  92.814 134.018  1.00  0.00    -0.084 Cl
ATOM     12  C   UNL     1     141.875  93.809 133.236  1.00  0.00     0.023 A 
ATOM     13  C   UNL     1     140.860  94.771 133.241  1.00  0.00     0.028 A 
ATOM     14  C   UNL     1     140.946  95.929 134.038  1.00  0.00     0.053 A 
ENDROOT
BRANCH   7  15
ATOM     15  C   UNL     1     142.594  96.819 137.284  1.00  0.00     0.000 A 
ATOM     16  C   UNL     1     141.594  96.569 138.231  1.00  0.00     0.010 A 
ATOM     17  C   UNL     1     143.941  96.714 137.654  1.00  0.00     0.010 A 
ATOM     18  C   UNL     1     141.937  96.247 139.544  1.00  0.00     0.001 A 
ATOM     19  C   UNL     1     144.280  96.391 138.969  1.00  0.00     0.001 A 
ATOM     20  C   UNL     1     143.279  96.163 139.914  1.00  0.00     0.000 A 
ENDBRANCH   7  15
TORSDOF 1
ENDMDL
MODEL 6
REMARK VINA RESULT:    -6.320      2.908      4.450
REMARK INTER + INTRA:          -7.046
REMARK INTER:                  -7.006
REMARK INTRA:                  -0.039
REMARK UNBOUND:                -0.356
REMARK SMILES CN1C(=O)CN=C(c2ccccc2)c2cc(Cl)ccc21
REMARK SMILES IDX 1 1 2 2 3 3 4 4 5 5 6 6 7 7 14 8 15 9 16 10 17 11 18 12
REMARK SMILES IDX 19 13 20 14 8 15 9 16 13 17 10 18 12 19 11 20
REMARK H PARENT
ROOT
ATOM      1  C   UNL     1     141.146  95.539 141.160  1.00  0.00     0.153 C 
ATOM      2  N   UNL     1     142.151  96.129 140.285  1.00  0.00    -0.313 N 
ATOM      3  C   UNL     1     143.461  96.187 140.777  1.00  0.00     0.248 C 
ATOM      4  O   UNL     1     143.779  95.703 141.867  1.00  0.00    -0.272 OA
ATOM      5  C   UNL     1     144.477  96.960 139.949  1.00  0.00     0.243 C 
ATOM      6  N   UNL     1     144.806  96.188 138.755  1.00  0.00    -0.274 NA
ATOM      7  C   UNL     1     143.902  96.076 137.841  1.00  0.00     0.075 C 
ATOM      8  C   UNL     1     142.568  96.744 137.895  1.00  0.00     0.026 A 
ATOM      9  C   UNL     1     142.132  97.390 136.722  1.00  0.00     0.033 A 
ATOM     10  C   UNL     1     140.855  97.932 136.656  1.00  0.00     0.041 A 
ATOM     11  Cl  UNL     1     140.324  98.704 135.215  1.00  0.00    -0.084 Cl
ATOM     12  C   UNL     1     140.003  97.844 137.748  1.00  0.00     0.023 A 
ATOM     13  C   UNL     1     140.442  97.227 138.924  1.00  0.00     0.028 A 
ATOM     14  C   UNL     1     141.740  96.690 139.035  1.00  0.00     0.053 A 
ENDROOT
BRANCH   7  15
ATOM     15  C   UNL     1     144.233  95.224 136.653  1.00  0.00     0.000 A 
ATOM     16  C   UNL     1     145.572  94.901 136.400  1.00  0.00     0.010 A 
ATOM     17  C   UNL     1     143.229  94.722 135.815  1.00  0.00     0.010 A 
ATOM     18  C   UNL     1     145.906  94.109 135.301  1.00  0.00     0.001 A 
ATOM     19  C   UNL     1     143.568  93.930 134.717  1.00  0.00     0.001 A 
ATOM     20  C   UNL     1     144.904  93.628 134.457  1.00  0.00     0.000 A 
ENDBRANCH   7  15
TORSDOF 1
ENDMDL
MODEL 7
REMARK VINA RESULT:    -6.195      4.979      8.214
REMARK INTER + INTRA:          -6.914
REMARK INTER:                  -6.462
REMARK INTRA:                  -0.451
REMARK UNBOUND:                -0.356
REMARK SMILES CN1C(=O)CN=C(c2ccccc2)c2cc(Cl)ccc21
REMARK SMILES IDX 1 1 2 2 3 3 4 4 5 5 6 6 7 7 14 8 15 9 16 10 17 11 18 12
REMARK SMILES IDX 19 13 20 14 8 15 9 16 13 17 10 18 12 19 11 20
REMARK H PARENT
ROOT
ATOM      1  C   UNL     1     138.901  96.850 131.655  1.00  0.00     0.153 C 
ATOM      2  N   UNL     1     139.883  97.555 132.469  1.00  0.00    -0.313 N 
ATOM      3  C   UNL     1     139.425  98.662 133.194  1.00  0.00     0.248 C 
ATOM      4  O   UNL     1     138.236  98.995 133.209  1.00  0.00    -0.272 OA
ATOM      5  C   UNL     1     140.473  99.509 133.900  1.00  0.00     0.243 C 
ATOM      6  N   UNL     1     140.976  98.777 135.058  1.00  0.00    -0.274 NA
ATOM      7  C   UNL     1     141.719  97.744 134.843  1.00  0.00     0.075 C 
ATOM      8  C   UNL     1     142.153  97.292 133.488  1.00  0.00     0.026 A 
ATOM      9  C   UNL     1     143.511  96.949 133.338  1.00  0.00     0.033 A 
ATOM     10  C   UNL     1     143.967  96.409 132.142  1.00  0.00     0.041 A 
ATOM     11  Cl  UNL     1     145.622  95.977 131.971  1.00  0.00    -0.084 Cl
ATOM     12  C   UNL     1     143.087  96.206 131.088  1.00  0.00     0.023 A 
ATOM     13  C   UNL     1     141.744  96.570 131.225  1.00  0.00     0.028 A 
ATOM     14  C   UNL     1     141.253  97.146 132.413  1.00  0.00     0.053 A 
ENDROOT
BRANCH   7  15
ATOM     15  C   UNL     1     142.171  96.966 136.042  1.00  0.00     0.000 A 
ATOM     16  C   UNL     1     141.837  95.610 136.137  1.00  0.00     0.010 A 
ATOM     17  C   UNL     1     142.943  97.562 137.047  1.00  0.00     0.010 A 
ATOM     18  C   UNL     1     142.246  94.863 137.243  1.00  0.00     0.001 A 
ATOM     19  C   UNL     1     143.350  96.812 138.152  1.00  0.00     0.001 A 
ATOM     20  C   UNL     1     142.998  95.466 138.252  1.00  0.00     0.000 A 
ENDBRANCH   7  15
TORSDOF 1
ENDMDL
MODEL 8
REMARK VINA RESULT:    -6.142      5.628      8.826
REMARK INTER + INTRA:          -6.857
REMARK INTER:                  -6.378
REMARK INTRA:                  -0.479
REMARK UNBOUND:                -0.356
REMARK SMILES CN1C(=O)CN=C(c2ccccc2)c2cc(Cl)ccc21
REMARK SMILES IDX 1 1 2 2 3 3 4 4 5 5 6 6 7 7 14 8 15 9 16 10 17 11 18 12
REMARK SMILES IDX 19 13 20 14 8 15 9 16 13 17 10 18 12 19 11 20
REMARK H PARENT
ROOT
ATOM      1  C   UNL     1     140.428  96.609 130.189  1.00  0.00     0.153 C 
ATOM      2  N   UNL     1     139.776  96.704 131.489  1.00  0.00    -0.313 N 
ATOM      3  C   UNL     1     139.184  95.537 131.986  1.00  0.00     0.248 C 
ATOM      4  O   UNL     1     139.261  94.455 131.397  1.00  0.00    -0.272 OA
ATOM      5  C   UNL     1     138.350  95.669 133.252  1.00  0.00     0.243 C 
ATOM      6  N   UNL     1     139.240  95.874 134.390  1.00  0.00    -0.274 NA
ATOM      7  C   UNL     1     139.854  97.005 134.480  1.00  0.00     0.075 C 
ATOM      8  C   UNL     1     139.657  98.143 133.533  1.00  0.00     0.026 A 
ATOM      9  C   UNL     1     139.490  99.421 134.101  1.00  0.00     0.033 A 
ATOM     10  C   UNL     1     139.419 100.544 133.286  1.00  0.00     0.041 A 
ATOM     11  Cl  UNL     1     139.231 102.102 133.988  1.00  0.00    -0.084 Cl
ATOM     12  C   UNL     1     139.510 100.412 131.908  1.00  0.00     0.023 A 
ATOM     13  C   UNL     1     139.649  99.142 131.339  1.00  0.00     0.028 A 
ATOM     14  C   UNL     1     139.697  97.979 132.134  1.00  0.00     0.053 A 
ENDROOT
BRANCH   7  15
ATOM     15  C   UNL     1     140.815  97.173 135.619  1.00  0.00     0.000 A 
ATOM     16  C   UNL     1     140.318  97.217 136.926  1.00  0.00     0.010 A 
ATOM     17  C   UNL     1     142.195  97.254 135.398  1.00  0.00     0.010 A 
ATOM     18  C   UNL     1     141.192  97.372 138.003  1.00  0.00     0.001 A 
ATOM     19  C   UNL     1     143.066  97.409 136.478  1.00  0.00     0.001 A 
ATOM     20  C   UNL     1     142.565  97.473 137.778  1.00  0.00     0.000 A 
ENDBRANCH   7  15
TORSDOF 1
ENDMDL
MODEL 9
REMARK VINA RESULT:    -6.065      5.176      8.235
REMARK INTER + INTRA:          -6.776
REMARK INTER:                  -6.347
REMARK INTRA:                  -0.428
REMARK UNBOUND:                -0.356
REMARK SMILES CN1C(=O)CN=C(c2ccccc2)c2cc(Cl)ccc21
REMARK SMILES IDX 1 1 2 2 3 3 4 4 5 5 6 6 7 7 14 8 15 9 16 10 17 11 18 12
REMARK SMILES IDX 19 13 20 14 8 15 9 16 13 17 10 18 12 19 11 20
REMARK H PARENT
ROOT
ATOM      1  C   UNL     1     138.559  98.578 132.803  1.00  0.00     0.153 C 
ATOM      2  N   UNL     1     139.967  98.301 133.051  1.00  0.00    -0.313 N 
ATOM      3  C   UNL     1     140.826  99.405 133.120  1.00  0.00     0.248 C 
ATOM      4  O   UNL     1     140.415 100.567 133.045  1.00  0.00    -0.272 OA
ATOM      5  C   UNL     1     142.318  99.118 133.198  1.00  0.00     0.243 C 
ATOM      6  N   UNL     1     142.636  98.607 134.527  1.00  0.00    -0.274 NA
ATOM      7  C   UNL     1     142.226  97.422 134.833  1.00  0.00     0.075 C 
ATOM      8  C   UNL     1     141.508  96.515 133.888  1.00  0.00     0.026 A 
ATOM      9  C   UNL     1     141.941  95.175 133.841  1.00  0.00     0.033 A 
ATOM     10  C   UNL     1     141.250  94.244 133.076  1.00  0.00     0.041 A 
ATOM     11  Cl  UNL     1     141.775  92.608 133.036  1.00  0.00    -0.084 Cl
ATOM     12  C   UNL     1     140.130  94.629 132.352  1.00  0.00     0.023 A 
ATOM     13  C   UNL     1     139.713  95.964 132.376  1.00  0.00     0.028 A 
ATOM     14  C   UNL     1     140.407  96.941 133.118  1.00  0.00     0.053 A 
ENDROOT
BRANCH   7  15
ATOM     15  C   UNL     1     142.503  96.940 136.225  1.00  0.00     0.000 A 
ATOM     16  C   UNL     1     143.793  96.502 136.548  1.00  0.00     0.010 A 
ATOM     17  C   UNL     1     141.507  96.949 137.209  1.00  0.00     0.010 A 
ATOM     18  C   UNL     1     144.077  96.049 137.837  1.00  0.00     0.001 A 
ATOM     19  C   UNL     1     141.795  96.495 138.497  1.00  0.00     0.001 A 
ATOM     20  C   UNL     1     143.076  96.041 138.809  1.00  0.00     0.000 A 
ENDBRANCH   7  15
TORSDOF 1
ENDMDL
