MODEL 1
REMARK VINA RESULT:    -8.104      0.000      0.000
REMARK INTER + INTRA:         -10.046
REMARK INTER:                  -9.525
REMARK INTRA:                  -0.520
REMARK UNBOUND:                -0.520
REMARK SMILES CN1CCN(C(=O)OC2c3nccnc3C(=O)N2c2ccc(Cl)cn2)CC1
REMARK SMILES IDX 9 1 10 2 11 3 12 4 13 5 14 6 15 7 16 8 17 9 18 10 8 11 6 12
REMARK SMILES IDX 2 13 3 14 27 15 4 16 26 17 5 18 7 19 1 20 19 21 20 22 25 23
REMARK SMILES IDX 21 24 24 25 22 26 23 27
REMARK H PARENT
ROOT
ATOM      1  C   UNL     1     144.190  96.587 141.512  1.00  0.00     0.338 C 
ATOM      2  C   UNL     1     142.934  95.842 141.894  1.00  0.00     0.134 A 
ATOM      3  N   UNL     1     142.347  94.813 141.242  1.00  0.00    -0.251 NA
ATOM      4  C   UNL     1     141.210  94.366 141.833  1.00  0.00     0.131 A 
ATOM      5  C   UNL     1     140.694  94.922 143.006  1.00  0.00     0.132 A 
ATOM      6  N   UNL     1     141.284  95.956 143.654  1.00  0.00    -0.247 NA
ATOM      7  C   UNL     1     142.410  96.383 143.048  1.00  0.00     0.156 A 
ATOM      8  C   UNL     1     143.284  97.473 143.506  1.00  0.00     0.283 C 
ATOM      9  O   UNL     1     143.077  98.130 144.511  1.00  0.00    -0.267 OA
ATOM     10  N   UNL     1     144.334  97.549 142.600  1.00  0.00    -0.248 N 
ENDROOT
BRANCH   1  11
ATOM     11  O   UNL     1     143.949  97.296 140.301  1.00  0.00    -0.419 OA
BRANCH  11  12
ATOM     12  C   UNL     1     144.508  96.726 139.205  1.00  0.00     0.412 C 
ATOM     13  N   UNL     1     141.882  96.858 135.750  1.00  0.00    -0.303 NA
ATOM     14  C   UNL     1     141.370  96.563 137.104  1.00  0.00     0.106 C 
ATOM     15  C   UNL     1     143.359  96.837 135.683  1.00  0.00     0.106 C 
ATOM     16  C   UNL     1     142.246  97.146 138.225  1.00  0.00     0.138 C 
ATOM     17  C   UNL     1     144.064  96.136 136.860  1.00  0.00     0.138 C 
ATOM     18  N   UNL     1     143.626  96.664 138.148  1.00  0.00    -0.306 N 
ATOM     19  O   UNL     1     145.662  96.317 139.153  1.00  0.00    -0.224 OA
ATOM     20  C   UNL     1     141.278  95.968 134.762  1.00  0.00     0.105 C 
ENDBRANCH  11  12
ENDBRANCH   1  11
BRANCH  10  21
ATOM     21  C   UNL     1     145.460  98.387 142.656  1.00  0.00     0.138 A 
ATOM     22  C   UNL     1     145.520  99.504 143.486  1.00  0.00     0.049 A 
ATOM     23  N   UNL     1     146.506  98.050 141.863  1.00  0.00    -0.237 NA
ATOM     24  C   UNL     1     146.671 100.296 143.500  1.00  0.00     0.026 A 
ATOM     25  C   UNL     1     147.613  98.833 141.890  1.00  0.00     0.134 A 
ATOM     26  C   UNL     1     147.740  99.956 142.687  1.00  0.00     0.059 A 
ATOM     27  Cl  UNL     1     149.170 100.899 142.670  1.00  0.00    -0.083 Cl
ENDBRANCH  10  21
TORSDOF 3
ENDMDL
MODEL 2
REMARK VINA RESULT:    -7.689      4.091      6.353
REMARK INTER + INTRA:          -9.558
REMARK INTER:                  -8.596
REMARK INTRA:                  -0.961
REMARK UNBOUND:                -0.520
REMARK SMILES CN1CCN(C(=O)OC2c3nccnc3C(=O)N2c2ccc(Cl)cn2)CC1
REMARK SMILES IDX 9 1 10 2 11 3 12 4 13 5 14 6 15 7 16 8 17 9 18 10 8 11 6 12
REMARK SMILES IDX 2 13 3 14 27 15 4 16 26 17 5 18 7 19 1 20 19 21 20 22 25 23
REMARK SMILES IDX 21 24 24 25 22 26 23 27
REMARK H PARENT
ROOT
ATOM      1  C   UNL     1     142.076  96.139 137.912  1.00  0.00     0.338 C 
ATOM      2  C   UNL     1     142.178  96.118 139.418  1.00  0.00     0.134 A 
ATOM      3  N   UNL     1     141.244  96.499 140.319  1.00  0.00    -0.251 NA
ATOM      4  C   UNL     1     141.646  96.376 141.610  1.00  0.00     0.131 A 
ATOM      5  C   UNL     1     142.909  95.901 141.971  1.00  0.00     0.132 A 
ATOM      6  N   UNL     1     143.843  95.524 141.063  1.00  0.00    -0.247 NA
ATOM      7  C   UNL     1     143.422  95.656 139.789  1.00  0.00     0.156 A 
ATOM      8  C   UNL     1     144.190  95.322 138.581  1.00  0.00     0.283 C 
ATOM      9  O   UNL     1     145.324  94.879 138.601  1.00  0.00    -0.267 OA
ATOM     10  N   UNL     1     143.363  95.589 137.498  1.00  0.00    -0.248 N 
ENDROOT
BRANCH   1  11
ATOM     11  O   UNL     1     141.994  97.493 137.479  1.00  0.00    -0.419 OA
BRANCH  11  12
ATOM     12  C   UNL     1     140.802  97.827 136.927  1.00  0.00     0.412 C 
ATOM     13  N   UNL     1     141.119  98.645 132.674  1.00  0.00    -0.303 NA
ATOM     14  C   UNL     1     142.147  99.102 133.632  1.00  0.00     0.106 C 
ATOM     15  C   UNL     1     139.903  98.137 133.344  1.00  0.00     0.106 C 
ATOM     16  C   UNL     1     142.215  98.243 134.906  1.00  0.00     0.138 C 
ATOM     17  C   UNL     1     139.747  98.539 134.823  1.00  0.00     0.138 C 
ATOM     18  N   UNL     1     140.931  98.201 135.606  1.00  0.00    -0.306 N 
ATOM     19  O   UNL     1     139.733  97.797 137.524  1.00  0.00    -0.224 OA
ATOM     20  C   UNL     1     140.811  99.693 131.705  1.00  0.00     0.105 C 
ENDBRANCH  11  12
ENDBRANCH   1  11
BRANCH  10  21
ATOM     21  C   UNL     1     143.625  95.358 136.137  1.00  0.00     0.138 A 
ATOM     22  C   UNL     1     142.763  94.625 135.325  1.00  0.00     0.049 A 
ATOM     23  N   UNL     1     144.764  95.896 135.639  1.00  0.00    -0.237 NA
ATOM     24  C   UNL     1     143.077  94.432 133.976  1.00  0.00     0.026 A 
ATOM     25  C   UNL     1     145.051  95.697 134.328  1.00  0.00     0.134 A 
ATOM     26  C   UNL     1     144.243  94.978 133.466  1.00  0.00     0.059 A 
ATOM     27  Cl  UNL     1     144.668  94.766 131.820  1.00  0.00    -0.083 Cl
ENDBRANCH  10  21
TORSDOF 3
ENDMDL
MODEL 3
REMARK VINA RESULT:    -7.597      3.233      5.971
REMARK INTER + INTRA:          -9.449
REMARK INTER:                  -9.116
REMARK INTRA:                  -0.333
REMARK UNBOUND:                -0.520
REMARK SMILES CN1CCN(C(=O)OC2c3nccnc3C(=O)N2c2ccc(Cl)cn2)CC1
REMARK SMILES IDX 9 1 10 2 11 3 12 4 13 5 14 6 15 7 16 8 17 9 18 10 8 11 6 12
REMARK SMILES IDX 2 13 3 14 27 15 4 16 26 17 5 18 7 19 1 20 19 21 20 22 25 23
REMARK SMILES IDX 21 24 24 25 22 26 23 27
REMARK H PARENT
ROOT
ATOM      1  C   UNL     1     142.987  97.057 137.442  1.00  0.00     0.338 C 
ATOM      2  C   UNL     1     143.782  96.713 136.207  1.00  0.00     0.134 A 
ATOM      3  N   UNL     1     143.649  97.230 134.963  1.00  0.00    -0.251 NA
ATOM      4  C   UNL     1     144.507  96.698 134.055  1.00  0.00     0.131 A 
ATOM      5  C   UNL     1     145.438  95.708 134.377  1.00  0.00     0.132 A 
ATOM      6  N   UNL     1     145.564  95.192 135.624  1.00  0.00    -0.247 NA
ATOM      7  C   UNL     1     144.702  95.733 136.508  1.00  0.00     0.156 A 
ATOM      8  C   UNL     1     144.596  95.399 137.935  1.00  0.00     0.283 C 
ATOM      9  O   UNL     1     145.295  94.570 138.490  1.00  0.00    -0.267 OA
ATOM     10  N   UNL     1     143.601  96.213 138.462  1.00  0.00    -0.248 N 
ENDROOT
BRANCH   1  11
ATOM     11  O   UNL     1     141.640  96.639 137.250  1.00  0.00    -0.419 OA
BRANCH  11  12
ATOM     12  C   UNL     1     140.910  97.466 136.460  1.00  0.00     0.412 C 
ATOM     13  N   UNL     1     139.034  95.365 133.156  1.00  0.00    -0.303 NA
ATOM     14  C   UNL     1     140.412  95.058 133.589  1.00  0.00     0.106 C 
ATOM     15  C   UNL     1     138.503  96.596 133.780  1.00  0.00     0.106 C 
ATOM     16  C   UNL     1     140.677  95.404 135.064  1.00  0.00     0.138 C 
ATOM     17  C   UNL     1     139.557  97.526 134.409  1.00  0.00     0.138 C 
ATOM     18  N   UNL     1     140.418  96.816 135.348  1.00  0.00    -0.306 N 
ATOM     19  O   UNL     1     140.707  98.648 136.703  1.00  0.00    -0.224 OA
ATOM     20  C   UNL     1     138.948  95.412 131.699  1.00  0.00     0.105 C 
ENDBRANCH  11  12
ENDBRANCH   1  11
BRANCH  10  21
ATOM     21  C   UNL     1     143.190  96.313 139.801  1.00  0.00     0.138 A 
ATOM     22  C   UNL     1     141.941  95.872 140.233  1.00  0.00     0.049 A 
ATOM     23  N   UNL     1     144.077  96.855 140.669  1.00  0.00    -0.237 NA
ATOM     24  C   UNL     1     141.590  95.995 141.581  1.00  0.00     0.026 A 
ATOM     25  C   UNL     1     143.717  96.966 141.973  1.00  0.00     0.134 A 
ATOM     26  C   UNL     1     142.495  96.553 142.469  1.00  0.00     0.059 A 
ATOM     27  Cl  UNL     1     142.107  96.725 144.130  1.00  0.00    -0.083 Cl
ENDBRANCH  10  21
TORSDOF 3
ENDMDL
MODEL 4
REMARK VINA RESULT:    -7.444      4.483      6.799
REMARK INTER + INTRA:          -9.270
REMARK INTER:                  -8.335
REMARK INTRA:                  -0.935
REMARK UNBOUND:                -0.520
REMARK SMILES CN1CCN(C(=O)OC2c3nccnc3C(=O)N2c2ccc(Cl)cn2)CC1
REMARK SMILES IDX 9 1 10 2 11 3 12 4 13 5 14 6 15 7 16 8 17 9 18 10 8 11 6 12
REMARK SMILES IDX 2 13 3 14 27 15 4 16 26 17 5 18 7 19 1 20 19 21 20 22 25 23
REMARK SMILES IDX 21 24 24 25 22 26 23 27
REMARK H PARENT
ROOT
ATOM      1  C   UNL     1     142.936  96.736 136.986  1.00  0.00     0.338 C 
ATOM      2  C   UNL     1     142.870  96.348 138.443  1.00  0.00     0.134 A 
ATOM      3  N   UNL     1     143.825  95.745 139.186  1.00  0.00    -0.251 NA
ATOM      4  C   UNL     1     143.454  95.511 140.471  1.00  0.00     0.131 A 
ATOM      5  C   UNL     1     142.199  95.860 140.975  1.00  0.00     0.132 A 
ATOM      6  N   UNL     1     141.244  96.462 140.224  1.00  0.00    -0.247 NA
ATOM      7  C   UNL     1     141.634  96.682 138.953  1.00  0.00     0.156 A 
ATOM      8  C   UNL     1     140.838  97.325 137.898  1.00  0.00     0.283 C 
ATOM      9  O   UNL     1     139.704  97.738 138.062  1.00  0.00    -0.267 OA
ATOM     10  N   UNL     1     141.639  97.368 136.765  1.00  0.00    -0.248 N 
ENDROOT
BRANCH   1  11
ATOM     11  O   UNL     1     143.010  95.551 136.201  1.00  0.00    -0.419 OA
BRANCH  11  12
ATOM     12  C   UNL     1     144.160  95.425 135.493  1.00  0.00     0.412 C 
ATOM     13  N   UNL     1     143.451  95.131 131.220  1.00  0.00    -0.303 NA
ATOM     14  C   UNL     1     142.586  94.444 132.200  1.00  0.00     0.106 C 
ATOM     15  C   UNL     1     144.680  95.681 131.833  1.00  0.00     0.106 C 
ATOM     16  C   UNL     1     142.578  95.119 133.582  1.00  0.00     0.138 C 
ATOM     17  C   UNL     1     145.038  95.112 133.219  1.00  0.00     0.138 C 
ATOM     18  N   UNL     1     143.922  95.212 134.152  1.00  0.00    -0.306 N 
ATOM     19  O   UNL     1     145.281  95.497 135.982  1.00  0.00    -0.224 OA
ATOM     20  C   UNL     1     143.750  94.257 130.089  1.00  0.00     0.105 C 
ENDBRANCH  11  12
ENDBRANCH   1  11
BRANCH  10  21
ATOM     21  C   UNL     1     141.345  97.957 135.524  1.00  0.00     0.138 A 
ATOM     22  C   UNL     1     140.062  97.950 134.980  1.00  0.00     0.049 A 
ATOM     23  N   UNL     1     142.376  98.548 134.874  1.00  0.00    -0.237 NA
ATOM     24  C   UNL     1     139.832  98.557 133.742  1.00  0.00     0.026 A 
ATOM     25  C   UNL     1     142.131  99.130 133.673  1.00  0.00     0.134 A 
ATOM     26  C   UNL     1     140.886  99.159 133.074  1.00  0.00     0.059 A 
ATOM     27  Cl  UNL     1     140.649  99.913 131.553  1.00  0.00    -0.083 Cl
ENDBRANCH  10  21
TORSDOF 3
ENDMDL
MODEL 5
REMARK VINA RESULT:    -7.135      3.672      7.675
REMARK INTER + INTRA:          -8.907
REMARK INTER:                  -7.910
REMARK INTRA:                  -0.997
REMARK UNBOUND:                -0.520
REMARK SMILES CN1CCN(C(=O)OC2c3nccnc3C(=O)N2c2ccc(Cl)cn2)CC1
REMARK SMILES IDX 9 1 10 2 11 3 12 4 13 5 14 6 15 7 16 8 17 9 18 10 8 11 6 12
REMARK SMILES IDX 2 13 3 14 27 15 4 16 26 17 5 18 7 19 1 20 19 21 20 22 25 23
REMARK SMILES IDX 21 24 24 25 22 26 23 27
REMARK H PARENT
ROOT
ATOM      1  C   UNL     1     143.734  96.231 136.193  1.00  0.00     0.338 C 
ATOM      2  C   UNL     1     142.455  96.964 135.872  1.00  0.00     0.134 A 
ATOM      3  N   UNL     1     141.869  97.961 136.575  1.00  0.00    -0.251 NA
ATOM      4  C   UNL     1     140.707  98.405 136.032  1.00  0.00     0.131 A 
ATOM      5  C   UNL     1     140.168  97.879 134.856  1.00  0.00     0.132 A 
ATOM      6  N   UNL     1     140.757  96.878 134.157  1.00  0.00    -0.247 NA
ATOM      7  C   UNL     1     141.908  96.453 134.716  1.00  0.00     0.156 A 
ATOM      8  C   UNL     1     142.787  95.395 134.196  1.00  0.00     0.283 C 
ATOM      9  O   UNL     1     142.563  94.769 133.176  1.00  0.00    -0.267 OA
ATOM     10  N   UNL     1     143.864  95.309 135.069  1.00  0.00    -0.248 N 
ENDROOT
BRANCH   1  11
ATOM     11  O   UNL     1     143.542  95.478 137.385  1.00  0.00    -0.419 OA
BRANCH  11  12
ATOM     12  C   UNL     1     144.220  95.955 138.458  1.00  0.00     0.412 C 
ATOM     13  N   UNL     1     141.773  96.076 142.043  1.00  0.00    -0.303 NA
ATOM     14  C   UNL     1     141.234  96.457 140.722  1.00  0.00     0.106 C 
ATOM     15  C   UNL     1     143.244  95.917 142.033  1.00  0.00     0.106 C 
ATOM     16  C   UNL     1     141.976  95.793 139.549  1.00  0.00     0.138 C 
ATOM     17  C   UNL     1     143.969  96.550 140.830  1.00  0.00     0.138 C 
ATOM     18  N   UNL     1     143.406  96.104 139.561  1.00  0.00    -0.306 N 
ATOM     19  O   UNL     1     145.416  96.221 138.455  1.00  0.00    -0.224 OA
ATOM     20  C   UNL     1     141.333  97.015 143.072  1.00  0.00     0.105 C 
ENDBRANCH  11  12
ENDBRANCH   1  11
BRANCH  10  21
ATOM     21  C   UNL     1     145.003  94.495 134.953  1.00  0.00     0.138 A 
ATOM     22  C   UNL     1     144.920  93.117 134.770  1.00  0.00     0.049 A 
ATOM     23  N   UNL     1     146.203  95.120 135.019  1.00  0.00    -0.237 NA
ATOM     24  C   UNL     1     146.092  92.361 134.658  1.00  0.00     0.026 A 
ATOM     25  C   UNL     1     147.328  94.368 134.908  1.00  0.00     0.134 A 
ATOM     26  C   UNL     1     147.320  92.998 134.728  1.00  0.00     0.059 A 
ATOM     27  Cl  UNL     1     148.781  92.111 134.597  1.00  0.00    -0.083 Cl
ENDBRANCH  10  21
TORSDOF 3
ENDMDL
MODEL 6
REMARK VINA RESULT:    -7.067      4.123      7.375
REMARK INTER + INTRA:          -8.826
REMARK INTER:                  -7.914
REMARK INTRA:                  -0.912
REMARK UNBOUND:                -0.520
REMARK SMILES CN1CCN(C(=O)OC2c3nccnc3C(=O)N2c2ccc(Cl)cn2)CC1
REMARK SMILES IDX 9 1 10 2 11 3 12 4 13 5 14 6 15 7 16 8 17 9 18 10 8 11 6 12
REMARK SMILES IDX 2 13 3 14 27 15 4 16 26 17 5 18 7 19 1 20 19 21 20 22 25 23
REMARK SMILES IDX 21 24 24 25 22 26 23 27
REMARK H PARENT
ROOT
ATOM      1  C   UNL     1     143.706  96.706 135.289  1.00  0.00     0.338 C 
ATOM      2  C   UNL     1     144.475  96.348 134.041  1.00  0.00     0.134 A 
ATOM      3  N   UNL     1     144.379  96.912 132.815  1.00  0.00    -0.251 NA
ATOM      4  C   UNL     1     145.199  96.352 131.889  1.00  0.00     0.131 A 
ATOM      5  C   UNL     1     146.058  95.290 132.178  1.00  0.00     0.132 A 
ATOM      6  N   UNL     1     146.148  94.726 133.408  1.00  0.00    -0.247 NA
ATOM      7  C   UNL     1     145.325  95.297 134.309  1.00  0.00     0.156 A 
ATOM      8  C   UNL     1     145.195  94.925 135.725  1.00  0.00     0.283 C 
ATOM      9  O   UNL     1     145.834  94.033 136.252  1.00  0.00    -0.267 OA
ATOM     10  N   UNL     1     144.259  95.789 136.280  1.00  0.00    -0.248 N 
ENDROOT
BRANCH   1  11
ATOM     11  O   UNL     1     142.333  96.389 135.086  1.00  0.00    -0.419 OA
BRANCH  11  12
ATOM     12  C   UNL     1     141.521  97.472 134.991  1.00  0.00     0.412 C 
ATOM     13  N   UNL     1     138.921  97.294 131.519  1.00  0.00    -0.303 NA
ATOM     14  C   UNL     1     140.334  96.868 131.454  1.00  0.00     0.106 C 
ATOM     15  C   UNL     1     138.598  98.003 132.776  1.00  0.00     0.106 C 
ATOM     16  C   UNL     1     140.895  96.416 132.813  1.00  0.00     0.138 C 
ATOM     17  C   UNL     1     139.811  98.522 133.572  1.00  0.00     0.138 C 
ATOM     18  N   UNL     1     140.786  97.467 133.825  1.00  0.00    -0.306 N 
ATOM     19  O   UNL     1     141.444  98.351 135.841  1.00  0.00    -0.224 OA
ATOM     20  C   UNL     1     138.563  98.081 130.341  1.00  0.00     0.105 C 
ENDBRANCH  11  12
ENDBRANCH   1  11
BRANCH  10  21
ATOM     21  C   UNL     1     143.854  95.874 137.622  1.00  0.00     0.138 A 
ATOM     22  C   UNL     1     142.678  95.289 138.086  1.00  0.00     0.049 A 
ATOM     23  N   UNL     1     144.675  96.551 138.461  1.00  0.00    -0.237 NA
ATOM     24  C   UNL     1     142.332  95.405 139.435  1.00  0.00     0.026 A 
ATOM     25  C   UNL     1     144.320  96.653 139.766  1.00  0.00     0.134 A 
ATOM     26  C   UNL     1     143.167  96.101 140.294  1.00  0.00     0.059 A 
ATOM     27  Cl  UNL     1     142.781  96.270 141.955  1.00  0.00    -0.083 Cl
ENDBRANCH  10  21
TORSDOF 3
ENDMDL
MODEL 7
REMARK VINA RESULT:    -7.016      6.064      8.358
REMARK INTER + INTRA:          -8.766
REMARK INTER:                  -7.836
REMARK INTRA:                  -0.931
REMARK UNBOUND:                -0.520
REMARK SMILES CN1CCN(C(=O)OC2c3nccnc3C(=O)N2c2ccc(Cl)cn2)CC1
REMARK SMILES IDX 9 1 10 2 11 3 12 4 13 5 14 6 15 7 16 8 17 9 18 10 8 11 6 12
REMARK SMILES IDX 2 13 3 14 27 15 4 16 26 17 5 18 7 19 1 20 19 21 20 22 25 23
REMARK SMILES IDX 21 24 24 25 22 26 23 27
REMARK H PARENT
ROOT
ATOM      1  C   UNL     1     143.133  96.426 134.100  1.00  0.00     0.338 C 
ATOM      2  C   UNL     1     144.168  95.692 134.916  1.00  0.00     0.134 A 
ATOM      3  N   UNL     1     145.007  94.713 134.507  1.00  0.00    -0.251 NA
ATOM      4  C   UNL     1     145.816  94.237 135.489  1.00  0.00     0.131 A 
ATOM      5  C   UNL     1     145.779  94.716 136.800  1.00  0.00     0.132 A 
ATOM      6  N   UNL     1     144.934  95.695 137.206  1.00  0.00    -0.247 NA
ATOM      7  C   UNL     1     144.141  96.150 136.215  1.00  0.00     0.156 A 
ATOM      8  C   UNL     1     143.132  97.212 136.328  1.00  0.00     0.283 C 
ATOM      9  O   UNL     1     142.893  97.813 137.360  1.00  0.00    -0.267 OA
ATOM     10  N   UNL     1     142.578  97.371 135.064  1.00  0.00    -0.248 N 
ENDROOT
BRANCH   1  11
ATOM     11  O   UNL     1     142.115  95.507 133.720  1.00  0.00    -0.419 OA
BRANCH  11  12
ATOM     12  C   UNL     1     142.013  95.314 132.381  1.00  0.00     0.412 C 
ATOM     13  N   UNL     1     138.125  96.470 130.833  1.00  0.00    -0.303 NA
ATOM     14  C   UNL     1     138.269  95.761 132.121  1.00  0.00     0.106 C 
ATOM     15  C   UNL     1     139.382  96.495 130.054  1.00  0.00     0.106 C 
ATOM     16  C   UNL     1     139.638  95.982 132.786  1.00  0.00     0.138 C 
ATOM     17  C   UNL     1     140.450  95.475 130.491  1.00  0.00     0.138 C 
ATOM     18  N   UNL     1     140.740  95.569 131.917  1.00  0.00    -0.306 N 
ATOM     19  O   UNL     1     142.940  94.960 131.664  1.00  0.00    -0.224 OA
ATOM     20  C   UNL     1     137.014  95.921 130.060  1.00  0.00     0.105 C 
ENDBRANCH  11  12
ENDBRANCH   1  11
BRANCH  10  21
ATOM     21  C   UNL     1     141.625  98.318 134.654  1.00  0.00     0.138 A 
ATOM     22  C   UNL     1     141.685  98.948 133.414  1.00  0.00     0.049 A 
ATOM     23  N   UNL     1     140.625  98.589 135.527  1.00  0.00    -0.237 NA
ATOM     24  C   UNL     1     140.704  99.880 133.061  1.00  0.00     0.026 A 
ATOM     25  C   UNL     1     139.683  99.497 135.166  1.00  0.00     0.134 A 
ATOM     26  C   UNL     1     139.682 100.161 133.954  1.00  0.00     0.059 A 
ATOM     27  Cl  UNL     1     138.460 101.297 133.565  1.00  0.00    -0.083 Cl
ENDBRANCH  10  21
TORSDOF 3
ENDMDL
MODEL 8
REMARK VINA RESULT:    -6.853      5.109      7.855
REMARK INTER + INTRA:          -8.576
REMARK INTER:                  -8.271
REMARK INTRA:                  -0.304
REMARK UNBOUND:                -0.520
REMARK SMILES CN1CCN(C(=O)OC2c3nccnc3C(=O)N2c2ccc(Cl)cn2)CC1
REMARK SMILES IDX 9 1 10 2 11 3 12 4 13 5 14 6 15 7 16 8 17 9 18 10 8 11 6 12
REMARK SMILES IDX 2 13 3 14 27 15 4 16 26 17 5 18 7 19 1 20 19 21 20 22 25 23
REMARK SMILES IDX 21 24 24 25 22 26 23 27
REMARK H PARENT
ROOT
ATOM      1  C   UNL     1     142.308  97.584 134.161  1.00  0.00     0.338 C 
ATOM      2  C   UNL     1     141.483  98.511 133.303  1.00  0.00     0.134 A 
ATOM      3  N   UNL     1     141.566  98.702 131.966  1.00  0.00    -0.251 NA
ATOM      4  C   UNL     1     140.691  99.623 131.488  1.00  0.00     0.131 A 
ATOM      5  C   UNL     1     139.790 100.310 132.305  1.00  0.00     0.132 A 
ATOM      6  N   UNL     1     139.713 100.118 133.644  1.00  0.00    -0.247 NA
ATOM      7  C   UNL     1     140.591  99.201 134.096  1.00  0.00     0.156 A 
ATOM      8  C   UNL     1     140.748  98.760 135.489  1.00  0.00     0.283 C 
ATOM      9  O   UNL     1     140.083  99.190 136.415  1.00  0.00    -0.267 OA
ATOM     10  N   UNL     1     141.743  97.791 135.490  1.00  0.00    -0.248 N 
ENDROOT
BRANCH   1  11
ATOM     11  O   UNL     1     143.657  98.041 134.160  1.00  0.00    -0.419 OA
BRANCH  11  12
ATOM     12  C   UNL     1     144.401  97.569 133.128  1.00  0.00     0.412 C 
ATOM     13  N   UNL     1     145.886  93.555 133.860  1.00  0.00    -0.303 NA
ATOM     14  C   UNL     1     145.858  94.579 134.925  1.00  0.00     0.106 C 
ATOM     15  C   UNL     1     145.612  94.120 132.521  1.00  0.00     0.106 C 
ATOM     16  C   UNL     1     144.789  95.661 134.698  1.00  0.00     0.138 C 
ATOM     17  C   UNL     1     145.756  95.649 132.406  1.00  0.00     0.138 C 
ATOM     18  N   UNL     1     144.968  96.346 133.417  1.00  0.00    -0.306 N 
ATOM     19  O   UNL     1     144.552  98.154 132.063  1.00  0.00    -0.224 OA
ATOM     20  C   UNL     1     147.142  92.810 133.892  1.00  0.00     0.105 C 
ENDBRANCH  11  12
ENDBRANCH   1  11
BRANCH  10  21
ATOM     21  C   UNL     1     142.194  97.021 136.576  1.00  0.00     0.138 A 
ATOM     22  C   UNL     1     143.007  97.547 137.576  1.00  0.00     0.049 A 
ATOM     23  N   UNL     1     141.790  95.728 136.611  1.00  0.00    -0.237 NA
ATOM     24  C   UNL     1     143.421  96.730 138.634  1.00  0.00     0.026 A 
ATOM     25  C   UNL     1     142.203  94.953 137.645  1.00  0.00     0.134 A 
ATOM     26  C   UNL     1     143.011  95.407 138.670  1.00  0.00     0.059 A 
ATOM     27  Cl  UNL     1     143.495  94.370 139.946  1.00  0.00    -0.083 Cl
ENDBRANCH  10  21
TORSDOF 3
ENDMDL
MODEL 9
REMARK VINA RESULT:    -6.770      5.023      8.065
REMARK INTER + INTRA:          -8.478
REMARK INTER:                  -7.421
REMARK INTRA:                  -1.057
REMARK UNBOUND:                -0.520
REMARK SMILES CN1CCN(C(=O)OC2c3nccnc3C(=O)N2c2ccc(Cl)cn2)CC1
REMARK SMILES IDX 9 1 10 2 11 3 12 4 13 5 14 6 15 7 16 8 17 9 18 10 8 11 6 12
REMARK SMILES IDX 2 13 3 14 27 15 4 16 26 17 5 18 7 19 1 20 19 21 20 22 25 23
REMARK SMILES IDX 21 24 24 25 22 26 23 27
REMARK H PARENT
ROOT
ATOM      1  C   UNL     1     143.308  97.074 135.568  1.00  0.00     0.338 C 
ATOM      2  C   UNL     1     143.449  96.719 137.028  1.00  0.00     0.134 A 
ATOM      3  N   UNL     1     144.581  96.410 137.703  1.00  0.00    -0.251 NA
ATOM      4  C   UNL     1     144.375  96.118 139.013  1.00  0.00     0.131 A 
ATOM      5  C   UNL     1     143.111  96.133 139.605  1.00  0.00     0.132 A 
ATOM      6  N   UNL     1     141.980  96.440 138.924  1.00  0.00    -0.247 NA
ATOM      7  C   UNL     1     142.208  96.725 137.626  1.00  0.00     0.156 A 
ATOM      8  C   UNL     1     141.197  97.105 136.629  1.00  0.00     0.283 C 
ATOM      9  O   UNL     1     140.008  97.205 136.874  1.00  0.00    -0.267 OA
ATOM     10  N   UNL     1     141.877  97.332 135.439  1.00  0.00    -0.248 N 
ENDROOT
BRANCH   1  11
ATOM     11  O   UNL     1     143.641  95.932 134.786  1.00  0.00    -0.419 OA
BRANCH  11  12
ATOM     12  C   UNL     1     144.672  96.129 133.927  1.00  0.00     0.412 C 
ATOM     13  N   UNL     1     147.696  93.029 134.231  1.00  0.00    -0.303 NA
ATOM     14  C   UNL     1     147.032  93.585 135.427  1.00  0.00     0.106 C 
ATOM     15  C   UNL     1     147.410  93.808 133.007  1.00  0.00     0.106 C 
ATOM     16  C   UNL     1     145.637  94.163 135.133  1.00  0.00     0.138 C 
ATOM     17  C   UNL     1     146.852  95.224 133.241  1.00  0.00     0.138 C 
ATOM     18  N   UNL     1     145.683  95.210 134.113  1.00  0.00    -0.306 N 
ATOM     19  O   UNL     1     144.704  97.015 133.082  1.00  0.00    -0.224 OA
ATOM     20  C   UNL     1     149.130  92.876 134.458  1.00  0.00     0.105 C 
ENDBRANCH  11  12
ENDBRANCH   1  11
BRANCH  10  21
ATOM     21  C   UNL     1     141.351  97.789 134.220  1.00  0.00     0.138 A 
ATOM     22  C   UNL     1     141.536  99.095 133.771  1.00  0.00     0.049 A 
ATOM     23  N   UNL     1     140.653  96.890 133.485  1.00  0.00    -0.237 NA
ATOM     24  C   UNL     1     140.990  99.490 132.545  1.00  0.00     0.026 A 
ATOM     25  C   UNL     1     140.131  97.294 132.300  1.00  0.00     0.134 A 
ATOM     26  C   UNL     1     140.273  98.572 131.794  1.00  0.00     0.059 A 
ATOM     27  Cl  UNL     1     139.585  99.013 130.288  1.00  0.00    -0.083 Cl
ENDBRANCH  10  21
TORSDOF 3
ENDMDL
