MODEL 1
REMARK VINA RESULT:   -10.374      0.000      0.000
REMARK INTER + INTRA:         -12.716
REMARK INTER:                 -12.194
REMARK INTRA:                  -0.522
REMARK UNBOUND:                -0.522
REMARK SMILES Cc1ccc(-c2nc3ccc(C)cn3c2CC(=O)N(C)C)cc1
REMARK SMILES IDX 6 1 7 2 8 3 9 4 10 5 11 6 12 7 13 8 14 9 15 10 5 11 2 12
REMARK SMILES IDX 3 13 23 14 4 15 22 16 1 17 16 18 17 19 18 20 19 21 20 22
REMARK SMILES IDX 21 23
REMARK H PARENT
ROOT
ATOM      1  C   UNL     1     119.261 158.118 107.532  1.00  0.00     0.093 A 
ATOM      2  N   UNL     1     119.872 158.481 106.357  1.00  0.00    -0.228 NA
ATOM      3  C   UNL     1     120.808 159.336 106.699  1.00  0.00     0.137 A 
ATOM      4  C   UNL     1     121.734 160.066 105.902  1.00  0.00     0.048 C 
ATOM      5  C   UNL     1     122.590 160.926 106.485  1.00  0.00     0.009 C 
ATOM      6  C   UNL     1     122.599 161.135 107.930  1.00  0.00    -0.034 C 
ATOM      7  C   UNL     1     123.577 162.117 108.492  1.00  0.00     0.046 C 
ATOM      8  C   UNL     1     121.729 160.434 108.683  1.00  0.00     0.096 C 
ATOM      9  N   UNL     1     120.849 159.533 108.077  1.00  0.00    -0.303 N 
ATOM     10  C   UNL     1     119.889 158.694 108.628  1.00  0.00     0.060 A 
ENDROOT
BRANCH   1  11
ATOM     11  C   UNL     1     118.139 157.199 107.546  1.00  0.00     0.002 A 
ATOM     12  C   UNL     1     115.981 155.388 107.529  1.00  0.00    -0.051 A 
ATOM     13  C   UNL     1     117.092 155.175 106.705  1.00  0.00     0.004 A 
ATOM     14  C   UNL     1     115.958 156.512 108.364  1.00  0.00     0.004 A 
ATOM     15  C   UNL     1     118.156 156.081 106.706  1.00  0.00     0.011 A 
ATOM     16  C   UNL     1     117.024 157.417 108.364  1.00  0.00     0.011 A 
ATOM     17  C   UNL     1     114.850 154.403 107.550  1.00  0.00     0.044 C 
ENDBRANCH   1  11
BRANCH  10  18
ATOM     18  C   UNL     1     119.675 158.536 110.101  1.00  0.00     0.157 C 
BRANCH  18  19
ATOM     19  C   UNL     1     118.687 159.568 110.643  1.00  0.00     0.228 C 
ATOM     20  O   UNL     1     118.812 160.750 110.305  1.00  0.00    -0.274 OA
ATOM     21  N   UNL     1     117.677 159.157 111.502  1.00  0.00    -0.348 N 
ATOM     22  C   UNL     1     117.440 157.784 111.919  1.00  0.00     0.146 C 
ATOM     23  C   UNL     1     116.835 160.162 112.131  1.00  0.00     0.146 C 
ENDBRANCH  18  19
ENDBRANCH  10  18
TORSDOF 3
ENDMDL
MODEL 2
REMARK VINA RESULT:    -9.284      2.593      4.896
REMARK INTER + INTRA:         -11.435
REMARK INTER:                 -11.129
REMARK INTRA:                  -0.306
REMARK UNBOUND:                -0.522
REMARK SMILES Cc1ccc(-c2nc3ccc(C)cn3c2CC(=O)N(C)C)cc1
REMARK SMILES IDX 6 1 7 2 8 3 9 4 10 5 11 6 12 7 13 8 14 9 15 10 5 11 2 12
REMARK SMILES IDX 3 13 23 14 4 15 22 16 1 17 16 18 17 19 18 20 19 21 20 22
REMARK SMILES IDX 21 23
REMARK H PARENT
ROOT
ATOM      1  C   UNL     1     117.420 156.143 110.537  1.00  0.00     0.093 A 
ATOM      2  N   UNL     1     116.985 155.369 109.490  1.00  0.00    -0.228 NA
ATOM      3  C   UNL     1     117.602 155.837 108.429  1.00  0.00     0.137 A 
ATOM      4  C   UNL     1     117.520 155.450 107.062  1.00  0.00     0.048 C 
ATOM      5  C   UNL     1     118.233 156.113 106.133  1.00  0.00     0.009 C 
ATOM      6  C   UNL     1     119.101 157.232 106.489  1.00  0.00    -0.034 C 
ATOM      7  C   UNL     1     119.850 157.917 105.390  1.00  0.00     0.046 C 
ATOM      8  C   UNL     1     119.186 157.587 107.785  1.00  0.00     0.096 C 
ATOM      9  N   UNL     1     118.454 156.890 108.750  1.00  0.00    -0.303 N 
ATOM     10  C   UNL     1     118.388 157.050 110.129  1.00  0.00     0.060 A 
ENDROOT
BRANCH   1  11
ATOM     11  C   UNL     1     116.921 155.941 111.884  1.00  0.00     0.002 A 
ATOM     12  C   UNL     1     116.003 155.532 114.516  1.00  0.00    -0.051 A 
ATOM     13  C   UNL     1     117.373 155.515 114.232  1.00  0.00     0.004 A 
ATOM     14  C   UNL     1     115.095 155.757 113.474  1.00  0.00     0.004 A 
ATOM     15  C   UNL     1     117.826 155.706 112.924  1.00  0.00     0.011 A 
ATOM     16  C   UNL     1     115.550 155.949 112.167  1.00  0.00     0.011 A 
ATOM     17  C   UNL     1     115.517 155.355 115.924  1.00  0.00     0.044 C 
ENDBRANCH   1  11
BRANCH  10  18
ATOM     18  C   UNL     1     119.231 158.026 110.891  1.00  0.00     0.157 C 
BRANCH  18  19
ATOM     19  C   UNL     1     118.799 159.469 110.632  1.00  0.00     0.228 C 
ATOM     20  O   UNL     1     119.375 160.115 109.750  1.00  0.00    -0.274 OA
ATOM     21  N   UNL     1     117.775 160.018 111.391  1.00  0.00    -0.348 N 
ATOM     22  C   UNL     1     117.025 159.314 112.419  1.00  0.00     0.146 C 
ATOM     23  C   UNL     1     117.471 161.433 111.244  1.00  0.00     0.146 C 
ENDBRANCH  18  19
ENDBRANCH  10  18
TORSDOF 3
ENDMDL
MODEL 3
REMARK VINA RESULT:    -9.156      1.835      5.102
REMARK INTER + INTRA:         -11.284
REMARK INTER:                 -10.435
REMARK INTRA:                  -0.849
REMARK UNBOUND:                -0.522
REMARK SMILES Cc1ccc(-c2nc3ccc(C)cn3c2CC(=O)N(C)C)cc1
REMARK SMILES IDX 6 1 7 2 8 3 9 4 10 5 11 6 12 7 13 8 14 9 15 10 5 11 2 12
REMARK SMILES IDX 3 13 23 14 4 15 22 16 1 17 16 18 17 19 18 20 19 21 20 22
REMARK SMILES IDX 21 23
REMARK H PARENT
ROOT
ATOM      1  C   UNL     1     117.985 157.347 110.006  1.00  0.00     0.093 A 
ATOM      2  N   UNL     1     117.218 156.581 109.161  1.00  0.00    -0.228 NA
ATOM      3  C   UNL     1     117.815 156.645 107.994  1.00  0.00     0.137 A 
ATOM      4  C   UNL     1     117.459 156.077 106.738  1.00  0.00     0.048 C 
ATOM      5  C   UNL     1     118.219 156.316 105.654  1.00  0.00     0.009 C 
ATOM      6  C   UNL     1     119.416 157.149 105.726  1.00  0.00    -0.034 C 
ATOM      7  C   UNL     1     120.197 157.369 104.470  1.00  0.00     0.046 C 
ATOM      8  C   UNL     1     119.757 157.675 106.919  1.00  0.00     0.096 C 
ATOM      9  N   UNL     1     118.972 157.417 108.046  1.00  0.00    -0.303 N 
ATOM     10  C   UNL     1     119.122 157.821 109.367  1.00  0.00     0.060 A 
ENDROOT
BRANCH   1  11
ATOM     11  C   UNL     1     117.613 157.542 111.394  1.00  0.00     0.002 A 
ATOM     12  C   UNL     1     116.900 157.867 114.100  1.00  0.00    -0.051 A 
ATOM     13  C   UNL     1     117.485 156.675 113.660  1.00  0.00     0.004 A 
ATOM     14  C   UNL     1     116.677 158.897 113.178  1.00  0.00     0.004 A 
ATOM     15  C   UNL     1     117.826 156.511 112.315  1.00  0.00     0.011 A 
ATOM     16  C   UNL     1     117.020 158.731 111.833  1.00  0.00     0.011 A 
ATOM     17  C   UNL     1     116.558 158.056 115.548  1.00  0.00     0.044 C 
ENDBRANCH   1  11
BRANCH  10  18
ATOM     18  C   UNL     1     120.300 158.598 109.866  1.00  0.00     0.157 C 
BRANCH  18  19
ATOM     19  C   UNL     1     120.142 160.096 109.605  1.00  0.00     0.228 C 
ATOM     20  O   UNL     1     119.185 160.692 110.107  1.00  0.00    -0.274 OA
ATOM     21  N   UNL     1     121.075 160.748 108.810  1.00  0.00    -0.348 N 
ATOM     22  C   UNL     1     122.247 160.128 108.213  1.00  0.00     0.146 C 
ATOM     23  C   UNL     1     120.839 162.136 108.442  1.00  0.00     0.146 C 
ENDBRANCH  18  19
ENDBRANCH  10  18
TORSDOF 3
ENDMDL
MODEL 4
REMARK VINA RESULT:    -8.567      3.087      6.478
REMARK INTER + INTRA:         -10.592
REMARK INTER:                  -9.978
REMARK INTRA:                  -0.613
REMARK UNBOUND:                -0.522
REMARK SMILES Cc1ccc(-c2nc3ccc(C)cn3c2CC(=O)N(C)C)cc1
REMARK SMILES IDX 6 1 7 2 8 3 9 4 10 5 11 6 12 7 13 8 14 9 15 10 5 11 2 12
REMARK SMILES IDX 3 13 23 14 4 15 22 16 1 17 16 18 17 19 18 20 19 21 20 22
REMARK SMILES IDX 21 23
REMARK H PARENT
ROOT
ATOM      1  C   UNL     1     117.693 159.036 111.202  1.00  0.00     0.093 A 
ATOM      2  N   UNL     1     117.274 160.342 111.271  1.00  0.00    -0.228 NA
ATOM      3  C   UNL     1     116.582 160.429 112.383  1.00  0.00     0.137 A 
ATOM      4  C   UNL     1     115.882 161.527 112.957  1.00  0.00     0.048 C 
ATOM      5  C   UNL     1     115.202 161.363 114.107  1.00  0.00     0.009 C 
ATOM      6  C   UNL     1     115.161 160.076 114.795  1.00  0.00    -0.034 C 
ATOM      7  C   UNL     1     114.373 159.982 116.063  1.00  0.00     0.046 C 
ATOM      8  C   UNL     1     115.834 159.041 114.256  1.00  0.00     0.096 C 
ATOM      9  N   UNL     1     116.549 159.216 113.067  1.00  0.00    -0.303 N 
ATOM     10  C   UNL     1     117.325 158.326 112.336  1.00  0.00     0.060 A 
ENDROOT
BRANCH   1  11
ATOM     11  C   UNL     1     118.468 158.550 110.076  1.00  0.00     0.002 A 
ATOM     12  C   UNL     1     120.005 157.652 107.892  1.00  0.00    -0.051 A 
ATOM     13  C   UNL     1     120.432 158.742 108.660  1.00  0.00     0.004 A 
ATOM     14  C   UNL     1     118.804 157.014 108.227  1.00  0.00     0.004 A 
ATOM     15  C   UNL     1     119.662 159.193 109.735  1.00  0.00     0.011 A 
ATOM     16  C   UNL     1     118.036 157.466 109.303  1.00  0.00     0.011 A 
ATOM     17  C   UNL     1     120.843 157.149 106.755  1.00  0.00     0.044 C 
ENDBRANCH   1  11
BRANCH  10  18
ATOM     18  C   UNL     1     117.623 156.928 112.783  1.00  0.00     0.157 C 
BRANCH  18  19
ATOM     19  C   UNL     1     116.356 156.077 112.862  1.00  0.00     0.228 C 
ATOM     20  O   UNL     1     115.666 155.937 111.848  1.00  0.00    -0.274 OA
ATOM     21  N   UNL     1     116.011 155.484 114.069  1.00  0.00    -0.348 N 
ATOM     22  C   UNL     1     116.787 155.569 115.296  1.00  0.00     0.146 C 
ATOM     23  C   UNL     1     114.731 154.802 114.177  1.00  0.00     0.146 C 
ENDBRANCH  18  19
ENDBRANCH  10  18
TORSDOF 3
ENDMDL
MODEL 5
REMARK VINA RESULT:    -8.504      1.920      3.975
REMARK INTER + INTRA:         -10.518
REMARK INTER:                  -9.706
REMARK INTRA:                  -0.812
REMARK UNBOUND:                -0.522
REMARK SMILES Cc1ccc(-c2nc3ccc(C)cn3c2CC(=O)N(C)C)cc1
REMARK SMILES IDX 6 1 7 2 8 3 9 4 10 5 11 6 12 7 13 8 14 9 15 10 5 11 2 12
REMARK SMILES IDX 3 13 23 14 4 15 22 16 1 17 16 18 17 19 18 20 19 21 20 22
REMARK SMILES IDX 21 23
REMARK H PARENT
ROOT
ATOM      1  C   UNL     1     119.091 158.965 110.029  1.00  0.00     0.093 A 
ATOM      2  N   UNL     1     119.176 160.293 110.371  1.00  0.00    -0.228 NA
ATOM      3  C   UNL     1     120.048 160.813 109.539  1.00  0.00     0.137 A 
ATOM      4  C   UNL     1     120.558 162.138 109.439  1.00  0.00     0.048 C 
ATOM      5  C   UNL     1     121.490 162.431 108.513  1.00  0.00     0.009 C 
ATOM      6  C   UNL     1     121.999 161.418 107.593  1.00  0.00    -0.034 C 
ATOM      7  C   UNL     1     123.040 161.828 106.601  1.00  0.00     0.046 C 
ATOM      8  C   UNL     1     121.505 160.167 107.682  1.00  0.00     0.096 C 
ATOM      9  N   UNL     1     120.529 159.868 108.638  1.00  0.00    -0.303 N 
ATOM     10  C   UNL     1     119.862 158.681 108.910  1.00  0.00     0.060 A 
ENDROOT
BRANCH   1  11
ATOM     11  C   UNL     1     118.238 158.050 110.763  1.00  0.00     0.002 A 
ATOM     12  C   UNL     1     116.622 156.266 112.227  1.00  0.00    -0.051 A 
ATOM     13  C   UNL     1     117.807 156.765 112.779  1.00  0.00     0.004 A 
ATOM     14  C   UNL     1     116.250 156.667 110.938  1.00  0.00     0.004 A 
ATOM     15  C   UNL     1     118.613 157.641 112.047  1.00  0.00     0.011 A 
ATOM     16  C   UNL     1     117.058 157.543 110.207  1.00  0.00     0.011 A 
ATOM     17  C   UNL     1     115.741 155.348 113.021  1.00  0.00     0.044 C 
ENDBRANCH   1  11
BRANCH  10  18
ATOM     18  C   UNL     1     120.025 157.433 108.099  1.00  0.00     0.157 C 
BRANCH  18  19
ATOM     19  C   UNL     1     118.818 157.184 107.195  1.00  0.00     0.228 C 
ATOM     20  O   UNL     1     118.490 158.055 106.383  1.00  0.00    -0.274 OA
ATOM     21  N   UNL     1     118.120 155.989 107.309  1.00  0.00    -0.348 N 
ATOM     22  C   UNL     1     118.463 154.902 108.212  1.00  0.00     0.146 C 
ATOM     23  C   UNL     1     116.887 155.820 106.555  1.00  0.00     0.146 C 
ENDBRANCH  18  19
ENDBRANCH  10  18
TORSDOF 3
ENDMDL
MODEL 6
REMARK VINA RESULT:    -8.432      2.492      5.231
REMARK INTER + INTRA:         -10.434
REMARK INTER:                  -9.707
REMARK INTRA:                  -0.727
REMARK UNBOUND:                -0.522
REMARK SMILES Cc1ccc(-c2nc3ccc(C)cn3c2CC(=O)N(C)C)cc1
REMARK SMILES IDX 6 1 7 2 8 3 9 4 10 5 11 6 12 7 13 8 14 9 15 10 5 11 2 12
REMARK SMILES IDX 3 13 23 14 4 15 22 16 1 17 16 18 17 19 18 20 19 21 20 22
REMARK SMILES IDX 21 23
REMARK H PARENT
ROOT
ATOM      1  C   UNL     1     118.609 157.945 110.933  1.00  0.00     0.093 A 
ATOM      2  N   UNL     1     119.301 159.058 110.525  1.00  0.00    -0.228 NA
ATOM      3  C   UNL     1     119.714 158.787 109.309  1.00  0.00     0.137 A 
ATOM      4  C   UNL     1     120.503 159.552 108.405  1.00  0.00     0.048 C 
ATOM      5  C   UNL     1     120.836 159.041 107.205  1.00  0.00     0.009 C 
ATOM      6  C   UNL     1     120.406 157.707 106.796  1.00  0.00    -0.034 C 
ATOM      7  C   UNL     1     120.829 157.215 105.449  1.00  0.00     0.046 C 
ATOM      8  C   UNL     1     119.649 156.990 107.649  1.00  0.00     0.096 C 
ATOM      9  N   UNL     1     119.295 157.527 108.890  1.00  0.00    -0.303 N 
ATOM     10  C   UNL     1     118.521 157.003 109.917  1.00  0.00     0.060 A 
ENDROOT
BRANCH   1  11
ATOM     11  C   UNL     1     118.026 157.862 112.259  1.00  0.00     0.002 A 
ATOM     12  C   UNL     1     116.919 157.650 114.841  1.00  0.00    -0.051 A 
ATOM     13  C   UNL     1     117.902 156.750 114.415  1.00  0.00     0.004 A 
ATOM     14  C   UNL     1     116.496 158.659 113.967  1.00  0.00     0.004 A 
ATOM     15  C   UNL     1     118.441 156.849 113.130  1.00  0.00     0.011 A 
ATOM     16  C   UNL     1     117.037 158.757 112.682  1.00  0.00     0.011 A 
ATOM     17  C   UNL     1     116.359 157.563 116.230  1.00  0.00     0.044 C 
ENDBRANCH   1  11
BRANCH  10  18
ATOM     18  C   UNL     1     117.800 155.694 109.826  1.00  0.00     0.157 C 
BRANCH  18  19
ATOM     19  C   UNL     1     116.285 155.886 109.756  1.00  0.00     0.228 C 
ATOM     20  O   UNL     1     115.671 156.168 110.790  1.00  0.00    -0.274 OA
ATOM     21  N   UNL     1     115.637 155.737 108.538  1.00  0.00    -0.348 N 
ATOM     22  C   UNL     1     116.290 155.442 107.272  1.00  0.00     0.146 C 
ATOM     23  C   UNL     1     114.183 155.773 108.505  1.00  0.00     0.146 C 
ENDBRANCH  18  19
ENDBRANCH  10  18
TORSDOF 3
ENDMDL
MODEL 7
REMARK VINA RESULT:    -8.293      2.530      7.137
REMARK INTER + INTRA:         -10.269
REMARK INTER:                 -10.237
REMARK INTRA:                  -0.033
REMARK UNBOUND:                -0.522
REMARK SMILES Cc1ccc(-c2nc3ccc(C)cn3c2CC(=O)N(C)C)cc1
REMARK SMILES IDX 6 1 7 2 8 3 9 4 10 5 11 6 12 7 13 8 14 9 15 10 5 11 2 12
REMARK SMILES IDX 3 13 23 14 4 15 22 16 1 17 16 18 17 19 18 20 19 21 20 22
REMARK SMILES IDX 21 23
REMARK H PARENT
ROOT
ATOM      1  C   UNL     1     118.113 158.056 111.114  1.00  0.00     0.093 A 
ATOM      2  N   UNL     1     117.761 158.821 112.200  1.00  0.00    -0.228 NA
ATOM      3  C   UNL     1     116.892 158.099 112.868  1.00  0.00     0.137 A 
ATOM      4  C   UNL     1     116.164 158.389 114.056  1.00  0.00     0.048 C 
ATOM      5  C   UNL     1     115.286 157.491 114.542  1.00  0.00     0.009 C 
ATOM      6  C   UNL     1     115.055 156.211 113.879  1.00  0.00    -0.034 C 
ATOM      7  C   UNL     1     114.055 155.277 114.482  1.00  0.00     0.046 C 
ATOM      8  C   UNL     1     115.754 155.935 112.761  1.00  0.00     0.096 C 
ATOM      9  N   UNL     1     116.673 156.863 112.264  1.00  0.00    -0.303 N 
ATOM     10  C   UNL     1     117.514 156.805 111.160  1.00  0.00     0.060 A 
ENDROOT
BRANCH   1  11
ATOM     11  C   UNL     1     119.044 158.547 110.115  1.00  0.00     0.002 A 
ATOM     12  C   UNL     1     120.849 159.552 108.200  1.00  0.00    -0.051 A 
ATOM     13  C   UNL     1     120.497 160.321 109.315  1.00  0.00     0.004 A 
ATOM     14  C   UNL     1     120.293 158.275 108.051  1.00  0.00     0.004 A 
ATOM     15  C   UNL     1     119.593 159.826 110.258  1.00  0.00     0.011 A 
ATOM     16  C   UNL     1     119.389 157.781 108.996  1.00  0.00     0.011 A 
ATOM     17  C   UNL     1     121.841 160.070 107.201  1.00  0.00     0.044 C 
ENDBRANCH   1  11
BRANCH  10  18
ATOM     18  C   UNL     1     117.653 155.597 110.288  1.00  0.00     0.157 C 
BRANCH  18  19
ATOM     19  C   UNL     1     116.717 155.660 109.081  1.00  0.00     0.228 C 
ATOM     20  O   UNL     1     115.545 156.009 109.252  1.00  0.00    -0.274 OA
ATOM     21  N   UNL     1     117.204 155.324 107.825  1.00  0.00    -0.348 N 
ATOM     22  C   UNL     1     118.576 154.940 107.535  1.00  0.00     0.146 C 
ATOM     23  C   UNL     1     116.275 155.241 106.709  1.00  0.00     0.146 C 
ENDBRANCH  18  19
ENDBRANCH  10  18
TORSDOF 3
ENDMDL
MODEL 8
REMARK VINA RESULT:    -7.892      4.005      7.164
REMARK INTER + INTRA:          -9.799
REMARK INTER:                  -8.769
REMARK INTRA:                  -1.030
REMARK UNBOUND:                -0.522
REMARK SMILES Cc1ccc(-c2nc3ccc(C)cn3c2CC(=O)N(C)C)cc1
REMARK SMILES IDX 6 1 7 2 8 3 9 4 10 5 11 6 12 7 13 8 14 9 15 10 5 11 2 12
REMARK SMILES IDX 3 13 23 14 4 15 22 16 1 17 16 18 17 19 18 20 19 21 20 22
REMARK SMILES IDX 21 23
REMARK H PARENT
ROOT
ATOM      1  C   UNL     1     116.279 158.412 113.497  1.00  0.00     0.093 A 
ATOM      2  N   UNL     1     116.733 159.629 113.050  1.00  0.00    -0.228 NA
ATOM      3  C   UNL     1     117.459 159.363 111.989  1.00  0.00     0.137 A 
ATOM      4  C   UNL     1     118.202 160.224 111.134  1.00  0.00     0.048 C 
ATOM      5  C   UNL     1     118.910 159.708 110.112  1.00  0.00     0.009 C 
ATOM      6  C   UNL     1     118.937 158.272 109.848  1.00  0.00    -0.034 C 
ATOM      7  C   UNL     1     119.758 157.784 108.697  1.00  0.00     0.046 C 
ATOM      8  C   UNL     1     118.223 157.461 110.652  1.00  0.00     0.096 C 
ATOM      9  N   UNL     1     117.480 158.000 111.706  1.00  0.00    -0.303 N 
ATOM     10  C   UNL     1     116.661 157.385 112.645  1.00  0.00     0.060 A 
ENDROOT
BRANCH   1  11
ATOM     11  C   UNL     1     115.461 158.304 114.691  1.00  0.00     0.002 A 
ATOM     12  C   UNL     1     113.919 158.076 117.037  1.00  0.00    -0.051 A 
ATOM     13  C   UNL     1     115.314 157.986 117.094  1.00  0.00     0.004 A 
ATOM     14  C   UNL     1     113.301 158.284 115.798  1.00  0.00     0.004 A 
ATOM     15  C   UNL     1     116.077 158.087 115.928  1.00  0.00     0.011 A 
ATOM     16  C   UNL     1     114.066 158.385 114.632  1.00  0.00     0.011 A 
ATOM     17  C   UNL     1     113.100 157.996 118.291  1.00  0.00     0.044 C 
ENDBRANCH   1  11
BRANCH  10  18
ATOM     18  C   UNL     1     116.340 155.923 112.634  1.00  0.00     0.157 C 
BRANCH  18  19
ATOM     19  C   UNL     1     116.968 155.196 113.822  1.00  0.00     0.228 C 
ATOM     20  O   UNL     1     118.199 155.124 113.895  1.00  0.00    -0.274 OA
ATOM     21  N   UNL     1     116.145 154.635 114.788  1.00  0.00    -0.348 N 
ATOM     22  C   UNL     1     114.692 154.708 114.795  1.00  0.00     0.146 C 
ATOM     23  C   UNL     1     116.741 153.818 115.834  1.00  0.00     0.146 C 
ENDBRANCH  18  19
ENDBRANCH  10  18
TORSDOF 3
ENDMDL
MODEL 9
REMARK VINA RESULT:    -7.830      3.497      7.524
REMARK INTER + INTRA:          -9.726
REMARK INTER:                  -9.454
REMARK INTRA:                  -0.272
REMARK UNBOUND:                -0.522
REMARK SMILES Cc1ccc(-c2nc3ccc(C)cn3c2CC(=O)N(C)C)cc1
REMARK SMILES IDX 6 1 7 2 8 3 9 4 10 5 11 6 12 7 13 8 14 9 15 10 5 11 2 12
REMARK SMILES IDX 3 13 23 14 4 15 22 16 1 17 16 18 17 19 18 20 19 21 20 22
REMARK SMILES IDX 21 23
REMARK H PARENT
ROOT
ATOM      1  C   UNL     1     116.984 158.464 112.176  1.00  0.00     0.093 A 
ATOM      2  N   UNL     1     116.782 159.695 112.752  1.00  0.00    -0.228 NA
ATOM      3  C   UNL     1     115.922 159.490 113.722  1.00  0.00     0.137 A 
ATOM      4  C   UNL     1     115.320 160.400 114.636  1.00  0.00     0.048 C 
ATOM      5  C   UNL     1     114.423 159.955 115.535  1.00  0.00     0.009 C 
ATOM      6  C   UNL     1     114.042 158.547 115.603  1.00  0.00    -0.034 C 
ATOM      7  C   UNL     1     113.030 158.142 116.627  1.00  0.00     0.046 C 
ATOM      8  C   UNL     1     114.622 157.686 114.744  1.00  0.00     0.096 C 
ATOM      9  N   UNL     1     115.562 158.148 113.819  1.00  0.00    -0.303 N 
ATOM     10  C   UNL     1     116.300 157.468 112.859  1.00  0.00     0.060 A 
ENDROOT
BRANCH   1  11
ATOM     11  C   UNL     1     117.861 158.300 111.032  1.00  0.00     0.002 A 
ATOM     12  C   UNL     1     119.585 158.034 108.821  1.00  0.00    -0.051 A 
ATOM     13  C   UNL     1     119.752 159.087 109.727  1.00  0.00     0.004 A 
ATOM     14  C   UNL     1     118.551 157.113 109.030  1.00  0.00     0.004 A 
ATOM     15  C   UNL     1     118.888 159.224 110.817  1.00  0.00     0.011 A 
ATOM     16  C   UNL     1     117.688 157.252 110.121  1.00  0.00     0.011 A 
ATOM     17  C   UNL     1     120.528 157.868 107.666  1.00  0.00     0.044 C 
ENDBRANCH   1  11
BRANCH  10  18
ATOM     18  C   UNL     1     116.275 155.980 112.696  1.00  0.00     0.157 C 
BRANCH  18  19
ATOM     19  C   UNL     1     117.049 155.276 113.811  1.00  0.00     0.228 C 
ATOM     20  O   UNL     1     118.280 155.376 113.838  1.00  0.00    -0.274 OA
ATOM     21  N   UNL     1     116.354 154.541 114.762  1.00  0.00    -0.348 N 
ATOM     22  C   UNL     1     114.907 154.405 114.821  1.00  0.00     0.146 C 
ATOM     23  C   UNL     1     117.102 153.753 115.728  1.00  0.00     0.146 C 
ENDBRANCH  18  19
ENDBRANCH  10  18
TORSDOF 3
ENDMDL
